LAMMPS (7 Feb 2024 - Development - patch_7Feb2024_update1-147-g4d89741d8c)
OMP_NUM_THREADS environment is not set. Defaulting to 1 thread. (src/comm.cpp:98)
  using 1 OpenMP thread(s) per MPI task
# Lennard-Jones Fluid in NVT Ensemble
units		lj
atom_style	atomic

lattice		fcc 0.8442
Lattice spacing in x,y,z = 1.6795962 1.6795962 1.6795962
region		box block 0 5 0 5 0 5
create_box	1 box
Created orthogonal box = (0 0 0) to (8.397981 8.397981 8.397981)
  1 by 1 by 1 MPI processor grid
create_atoms	1 box
Created 500 atoms
  using lattice units in orthogonal box = (0 0 0) to (8.397981 8.397981 8.397981)
  create_atoms CPU = 0.000 seconds
mass		1 1.0

velocity	all create 3.0 87287 loop geom

pair_style	lj/cut 2.5
pair_coeff	1 1 1.0 1.0 2.5

# Thermostat and Dynamics
velocity all create 1.0 12345  # Set initial temperature
fix 1 all nvt temp 1.0 1.0 1.0  # NVT ensemble with target temp of 1.0 and time constant of 1.0

# Output Settings
timestep 0.005
thermo 100  # Output thermodynamic info every 100 timesteps
dump 1 all custom 1 lj_nvt.lammpstrj id type x y z vx vy vz # Save atomic positions every 100 timesteps
dump_modify 1 sort id

# Run Simulation
run 50000
Generated 0 of 0 mixed pair_coeff terms from geometric mixing rule
Neighbor list info ...
  update: every = 1 steps, delay = 0 steps, check = yes
  max neighbors/atom: 2000, page size: 100000
  master list distance cutoff = 2.8
  ghost atom cutoff = 2.8
  binsize = 1.4, bins = 6 6 6
  1 neighbor lists, perpetual/occasional/extra = 1 0 0
  (1) pair lj/cut, perpetual
      attributes: half, newton on
      pair build: half/bin/atomonly/newton
      stencil: half/bin/3d
      bin: standard
Per MPI rank memory allocation (min/avg/max) = 3.144 | 3.144 | 3.144 Mbytes
   Step          Temp          E_pair         E_mol          TotEng         Press     
         0   1             -6.7733681      0             -5.2763681     -5.3928057    
       100   0.5468982     -6.0404454      0             -5.2217388     -1.4531316    
       200   0.58882307    -6.0042909      0             -5.1228227     -1.2655824    
       300   0.65068221    -5.9676752      0             -4.9936039     -1.0095837    
       400   0.71117363    -5.9188555      0             -4.8542285     -0.72106252   
       500   0.74997125    -5.8214401      0             -4.6987332     -0.21768015   
       600   0.77824799    -5.7047991      0             -4.5397618      0.4361092    
       700   0.85413359    -5.6599786      0             -4.3813406      0.76816171   
       800   0.90583611    -5.5800117      0             -4.223975       1.2724488    
       900   0.93328388    -5.4714172      0             -4.0742913      1.8185864    
      1000   0.94738665    -5.357007       0             -3.9387691      2.4163357    
      1100   1.0683553     -5.412794       0             -3.8134661      2.312478     
      1200   1.0543779     -5.3017494      0             -3.7233458      2.7386025    
      1300   1.0896866     -5.3211007      0             -3.6898398      2.7484897    
      1400   1.0143765     -5.2231745      0             -3.7046529      3.2087953    
      1500   1.0225361     -5.283997       0             -3.7532605      2.8283217    
      1600   1.0304361     -5.3677048      0             -3.8251419      2.4831308    
      1700   0.98475601    -5.3725033      0             -3.8983236      2.2954937    
      1800   0.9477777     -5.3724757      0             -3.9536524      2.3560227    
      1900   0.92318983    -5.3615286      0             -3.9795134      2.48171      
      2000   0.94836629    -5.3873841      0             -3.9676798      2.1799358    
      2100   0.94871818    -5.3423455      0             -3.9221144      2.4484728    
      2200   0.97709727    -5.3212035      0             -3.8584888      2.5808504    
      2300   1.0511853     -5.3620611      0             -3.7884367      2.5300604    
      2400   1.0767766     -5.3594832      0             -3.7475486      2.564924     
      2500   1.0647852     -5.3400414      0             -3.7460581      2.6810382    
      2600   1.0229809     -5.3079916      0             -3.7765892      2.7528529    
      2700   1.0116109     -5.3326749      0             -3.8182934      2.5464564    
      2800   1.0120588     -5.3784564      0             -3.8634044      2.3587106    
      2900   0.99090289    -5.3901936      0             -3.9068119      2.3361286    
      3000   0.94963904    -5.3530225      0             -3.9314128      2.4656554    
      3100   0.92046398    -5.3148918      0             -3.9369572      2.5920035    
      3200   0.96545745    -5.3478669      0             -3.9025771      2.5195663    
      3300   0.94437183    -5.2612365      0             -3.8475119      2.8429043    
      3400   1.0018129     -5.2905116      0             -3.7907977      2.7156643    
      3500   1.0306039     -5.2897562      0             -3.7469422      2.8377054    
      3600   1.0612923     -5.3160979      0             -3.7273433      2.7512495    
      3700   1.0667876     -5.339057       0             -3.742076       2.6286908    
      3800   1.0487733     -5.3636196      0             -3.793606       2.5828625    
      3900   1.0086363     -5.3733609      0             -3.8634324      2.4694965    
      4000   0.97916536    -5.3746526      0             -3.9088421      2.327667     
      4100   0.97098715    -5.3820132      0             -3.9284455      2.4067919    
      4200   0.96818472    -5.3732255      0             -3.923853       2.3847077    
      4300   0.98442408    -5.3671962      0             -3.8935134      2.6011569    
      4400   0.99840729    -5.3361588      0             -3.8415431      2.526718     
      4500   1.0386422     -5.3472023      0             -3.7923548      2.6076373    
      4600   1.0064718     -5.2711673      0             -3.764479       2.9145884    
      4700   1.0291263     -5.3019862      0             -3.7613841      2.7467401    
      4800   1.0573126     -5.361303       0             -3.7785061      2.4614021    
      4900   0.98946778    -5.3289783      0             -3.847745       2.6760569    
      5000   0.98035023    -5.3974733      0             -3.929889       2.3295392    
      5100   0.96713356    -5.4029169      0             -3.955118       2.1716438    
      5200   0.90581821    -5.3018018      0             -3.9457919      2.6817449    
      5300   0.98978006    -5.3986082      0             -3.9169074      2.2627626    
      5400   0.97583575    -5.3425811      0             -3.881755       2.4706422    
      5500   0.97651633    -5.3059161      0             -3.8440712      2.6527038    
      5600   1.0475588     -5.3723226      0             -3.8041272      2.3630681    
      5700   0.99106493    -5.2614237      0             -3.7777995      2.9728893    
      5800   1.0106853     -5.2815448      0             -3.7685489      2.7867658    
      5900   1.0223519     -5.3156227      0             -3.785162       2.6758671    
      6000   0.99132759    -5.3433757      0             -3.8593583      2.543556     
      6100   0.94666004    -5.3807511      0             -3.963601       2.2813932    
      6200   0.96377067    -5.4340347      0             -3.99127        2.0547491    
      6300   0.95292208    -5.4018082      0             -3.9752839      2.2937597    
      6400   0.98685035    -5.409657       0             -3.9323421      2.1776007    
      6500   0.96819128    -5.3241514      0             -3.874769       2.6725923    
      6600   1.0321028     -5.3718947      0             -3.8268367      2.4277266    
      6700   1.0102387     -5.3164081      0             -3.8040808      2.6574449    
      6800   1.038051      -5.355156       0             -3.8011937      2.5463814    
      6900   0.98848435    -5.2992285      0             -3.8194674      2.7382511    
      7000   1.0243671     -5.3801093      0             -3.8466318      2.3717687    
      7100   0.99013225    -5.3827135      0             -3.9004855      2.4610928    
      7200   0.9405916     -5.3723518      0             -3.9642862      2.266871     
      7300   0.95038726    -5.4216052      0             -3.9988754      2.1249607    
      7400   0.95966242    -5.4270212      0             -3.9904066      2.0188263    
      7500   0.97336482    -5.3755074      0             -3.9183802      2.3354355    
      7600   0.99066443    -5.308251       0             -3.8252263      2.696468     
      7700   0.9989325     -5.2960064      0             -3.8006044      2.7725419    
      7800   1.0359029     -5.3444245      0             -3.7936779      2.5278939    
      7900   0.98911757    -5.2806445      0             -3.7999355      2.8515757    
      8000   1.0525422     -5.3839377      0             -3.8082821      2.4516807    
      8100   1.0264522     -5.3657515      0             -3.8291526      2.3320933    
      8200   1.0021789     -5.3545485      0             -3.8542867      2.4824836    
      8300   0.98848018    -5.3636555      0             -3.8839007      2.3873072    
      8400   0.97049676    -5.3823117      0             -3.9294781      2.3833503    
      8500   0.9636764     -5.4029514      0             -3.9603278      2.2753861    
      8600   0.95905444    -5.4041102      0             -3.9684057      2.3007723    
      8700   0.95090451    -5.340231       0             -3.9167269      2.4948218    
      8800   0.99049844    -5.3054055      0             -3.8226293      2.6742563    
      8900   1.0179048     -5.3064314      0             -3.7826279      2.7259584    
      9000   1.0073726     -5.2978907      0             -3.789854       2.7673708    
      9100   1.009577      -5.3218233      0             -3.8104865      2.6585592    
      9200   1.0090647     -5.344034       0             -3.8334641      2.6305487    
      9300   1.0216107     -5.388494       0             -3.8591429      2.4496534    
      9400   1.0005316     -5.393633       0             -3.8958371      2.4272152    
      9500   0.98243449    -5.3986031      0             -3.9278987      2.2972688    
      9600   0.96090671    -5.3962128      0             -3.9577354      2.3147341    
      9700   0.92543969    -5.3626501      0             -3.9772669      2.3559376    
      9800   0.99919909    -5.4468446      0             -3.9510436      2.0901602    
      9900   0.97313434    -5.3335911      0             -3.876809       2.4894772    
     10000   1.0268585     -5.3514586      0             -3.8142513      2.4581554    
     10100   0.9871551     -5.2582378      0             -3.7804667      3.0020162    
     10200   1.0234117     -5.2958757      0             -3.7638283      2.7523128    
     10300   1.0118776     -5.2823383      0             -3.7675575      2.9130643    
     10400   1.0633778     -5.3924794      0             -3.8006029      2.3442961    
     10500   0.99566835    -5.3580163      0             -3.8675008      2.5424706    
     10600   0.95782631    -5.3488869      0             -3.9150209      2.5910646    
     10700   0.90705669    -5.2812745      0             -3.9234106      2.8242051    
     10800   0.95866349    -5.3379926      0             -3.9028733      2.478278     
     10900   0.99673956    -5.3702043      0             -3.8780852      2.4541127    
     11000   0.98778459    -5.3410489      0             -3.8623353      2.6236675    
     11100   1.0083926     -5.3539158      0             -3.8443521      2.5566303    
     11200   0.9904241     -5.3044908      0             -3.8218259      2.7226712    
     11300   1.0170083     -5.3210267      0             -3.7985654      2.6997166    
     11400   1.004703      -5.2936152      0             -3.7895748      2.7919044    
     11500   1.0753336     -5.4080888      0             -3.7983144      2.31001      
     11600   0.98015527    -5.3230568      0             -3.8557644      2.5848277    
     11700   0.98500824    -5.4180527      0             -3.9434953      2.1612079    
     11800   0.92424834    -5.3610875      0             -3.9774878      2.3346574    
     11900   0.93202626    -5.359986       0             -3.9647427      2.4428618    
     12000   1.0122073     -5.4274564      0             -3.9121821      2.1910608    
     12100   0.98888531    -5.3308363      0             -3.850475       2.614194     
     12200   0.99846127    -5.3150509      0             -3.8203544      2.7514497    
     12300   1.0107392     -5.3134915      0             -3.8004148      2.7421795    
     12400   1.0151926     -5.3179536      0             -3.7982103      2.6542076    
     12500   1.0206381     -5.3404085      0             -3.8125133      2.5937091    
     12600   0.98095559    -5.3061475      0             -3.837657       2.7606708    
     12700   1.0034817     -5.3756244      0             -3.8734123      2.4012345    
     12800   0.98166117    -5.4040034      0             -3.9344566      2.3041216    
     12900   0.94281854    -5.4119223      0             -4.000523       2.1476206    
     13000   0.93760405    -5.4250315      0             -4.0214382      2.2065649    
     13100   0.95171245    -5.4219779      0             -3.9972644      2.2737446    
     13200   0.94856471    -5.3428511      0             -3.9228497      2.5999045    
     13300   0.99230039    -5.3553539      0             -3.8698802      2.5485137    
     13400   1.0057773     -5.3509298      0             -3.8452811      2.5395744    
     13500   1.0043449     -5.3294698      0             -3.8259654      2.6634269    
     13600   0.98816699    -5.2899141      0             -3.8106282      2.7527976    
     13700   0.99770952    -5.2921201      0             -3.7985489      2.8118023    
     13800   1.0228958     -5.3305068      0             -3.7992319      2.6528249    
     13900   1.0009089     -5.3182917      0             -3.8199311      2.6793736    
     14000   0.99843753    -5.348114       0             -3.853453       2.5507013    
     14100   0.96914788    -5.3409505      0             -3.8901361      2.5206013    
     14200   0.92744392    -5.3246829      0             -3.9362994      2.5662517    
     14300   0.94041801    -5.3722823      0             -3.9644766      2.2846764    
     14400   0.92232258    -5.3449033      0             -3.9641864      2.3789479    
     14500   1.0364225     -5.4594438      0             -3.9079194      2.0538902    
     14600   1.012776      -5.3308346      0             -3.8147089      2.645314     
     14700   1.0309467     -5.3092333      0             -3.7659061      2.6464602    
     14800   1.0810397     -5.3763502      0             -3.7580338      2.4473998    
     14900   1.020928      -5.3010687      0             -3.7727395      2.7982941    
     15000   1.0276768     -5.3448276      0             -3.8063954      2.5392233    
     15100   1.0136672     -5.3691767      0             -3.8517169      2.4119504    
     15200   0.92523414    -5.280721       0             -3.8956454      2.7533253    
     15300   0.93939652    -5.3210866      0             -3.9148101      2.6256796    
     15400   0.96900187    -5.3681092      0             -3.9175134      2.4033314    
     15500   0.95485328    -5.3247825      0             -3.8953672      2.6190729    
     15600   0.99590173    -5.2995637      0             -3.8086988      2.7855987    
     15700   1.0585943     -5.3029745      0             -3.7182589      2.8208294    
     15800   1.0236106     -5.2378238      0             -3.7054788      3.1834147    
     15900   1.0616833     -5.3236052      0             -3.7342653      2.679489     
     16000   1.0234199     -5.3229439      0             -3.7908844      2.5889146    
     16100   0.97482804    -5.3082852      0             -3.8489677      2.6760526    
     16200   1.0370405     -5.4347299      0             -3.8822803      2.2164771    
     16300   0.96983188    -5.3542556      0             -3.9024172      2.4990823    
     16400   0.94213152    -5.3143377      0             -3.9039668      2.6714882    
     16500   0.98589073    -5.3620259      0             -3.8861475      2.4192335    
     16600   0.98596608    -5.3311452      0             -3.855154       2.5444637    
     16700   1.0028467     -5.3137003      0             -3.8124387      2.6850044    
     16800   1.0063154     -5.2474377      0             -3.7409835      2.9585808    
     16900   1.1094077     -5.3337181      0             -3.6729348      2.646415     
     17000   1.0739013     -5.2825482      0             -3.674918       2.9013909    
     17100   1.0657889     -5.3236009      0             -3.7281149      2.6072133    
     17200   1.0038932     -5.2821723      0             -3.7793442      2.7842079    
     17300   1.0202039     -5.3346268      0             -3.8073815      2.7186266    
     17400   1.0011259     -5.330992       0             -3.8323065      2.6883946    
     17500   0.96945346    -5.3068324      0             -3.8555606      2.829975     
     17600   0.9514581     -5.3005137      0             -3.8761809      2.7253808    
     17700   1.0283058     -5.427735       0             -3.8883611      2.2339103    
     17800   0.99451949    -5.3784142      0             -3.8896185      2.4144166    
     17900   0.98959256    -5.3485669      0             -3.8671468      2.6077233    
     18000   0.97639484    -5.2844726      0             -3.8228095      2.8520606    
     18100   1.0227614     -5.2900717      0             -3.7589978      2.8641292    
     18200   1.0482829     -5.2769044      0             -3.7076249      2.9220925    
     18300   1.0511422     -5.2877888      0             -3.7142289      2.813442     
     18400   1.0561003     -5.3447742      0             -3.7637921      2.6357887    
     18500   1.013434      -5.338037       0             -3.8209264      2.5168748    
     18600   0.98927827    -5.3380915      0             -3.8571419      2.5773495    
     18700   1.0093185     -5.3789342      0             -3.8679844      2.2995692    
     18800   0.96816779    -5.3141846      0             -3.8648374      2.7075635    
     18900   0.96593761    -5.3045947      0             -3.8585861      2.7498826    
     19000   0.97004602    -5.2984242      0             -3.8462653      2.7343849    
     19100   1.0264682     -5.3640107      0             -3.8273879      2.478481     
     19200   1.031917      -5.3418326      0             -3.7970529      2.5725673    
     19300   1.0598236     -5.3314652      0             -3.7449093      2.5800397    
     19400   1.0328474     -5.254384       0             -3.7082114      3.0102744    
     19500   1.0267444     -5.2333849      0             -3.6963485      3.0845079    
     19600   1.0326802     -5.289439       0             -3.7435167      2.8239104    
     19700   0.99128893    -5.3163264      0             -3.8323668      2.685551     
     19800   0.98658504    -5.3604684      0             -3.8835506      2.479537     
     19900   1.0272474     -5.4358734      0             -3.898084       2.1929497    
     20000   0.9673246     -5.3431251      0             -3.8950402      2.5529929    
     20100   1.0006676     -5.3724647      0             -3.8744653      2.4315317    
     20200   0.99273572    -5.3321571      0             -3.8460317      2.6327482    
     20300   1.0438445     -5.3673404      0             -3.8047052      2.549475     
     20400   0.99924902    -5.2597568      0             -3.763881       2.9689862    
     20500   1.0458789     -5.2836722      0             -3.7179916      2.7601132    
     20600   1.0532926     -5.267843       0             -3.6910639      3.0638156    
     20700   1.0547421     -5.2825042      0             -3.7035552      2.9307969    
     20800   1.0012472     -5.2762849      0             -3.7774179      2.8982042    
     20900   0.95370103    -5.2816245      0             -3.8539341      2.758199     
     21000   0.98821197    -5.3647099      0             -3.8853566      2.4491041    
     21100   0.98848915    -5.3724133      0             -3.892645       2.4628839    
     21200   0.98247517    -5.3511503      0             -3.880385       2.4608617    
     21300   0.98570152    -5.3179749      0             -3.8423797      2.7908929    
     21400   1.0255722     -5.324624       0             -3.7893424      2.7636851    
     21500   1.0405796     -5.297478       0             -3.7397304      2.7847659    
     21600   1.0431089     -5.2883107      0             -3.7267767      2.7822419    
     21700   1.0301731     -5.2921983      0             -3.7500291      2.8685913    
     21800   1.0213988     -5.3277582      0             -3.7987241      2.6178177    
     21900   0.99977686    -5.334634       0             -3.837968       2.5386733    
     22000   1.0311121     -5.4017386      0             -3.8581637      2.3089879    
     22100   0.96739792    -5.3135598      0             -3.8653651      2.6524476    
     22200   0.98213301    -5.3274766      0             -3.8572234      2.5665447    
     22300   1.0113591     -5.3579605      0             -3.8439559      2.4619236    
     22400   1.0036502     -5.3277617      0             -3.8252974      2.7096222    
     22500   1.0558415     -5.3925929      0             -3.8119981      2.4201004    
     22600   0.997731      -5.305899       0             -3.8122957      2.688594     
     22700   0.98837762    -5.3071024      0             -3.8275011      2.7482108    
     22800   0.96097919    -5.3083266      0             -3.8697407      2.6616837    
     22900   1.0115843     -5.4368158      0             -3.9224741      2.053779     
     23000   0.9673654     -5.4079947      0             -3.9598487      2.2717343    
     23100   0.9720182     -5.4197786      0             -3.9646673      2.1461971    
     23200   0.96585508    -5.3827849      0             -3.9368998      2.3892653    
     23300   1.0016468     -5.3487319      0             -3.8492667      2.5569596    
     23400   1.0000061     -5.2805555      0             -3.7835463      2.8279716    
     23500   1.0567659     -5.358408       0             -3.7764294      2.4765508    
     23600   1.0172812     -5.312384       0             -3.789514       2.798384     
     23700   1.0202478     -5.3565275      0             -3.8292165      2.4632048    
     23800   0.96741492    -5.3232606      0             -3.8750405      2.6318734    
     23900   0.97090791    -5.3590421      0             -3.905593       2.4392113    
     24000   0.96985891    -5.3724752      0             -3.9205964      2.3133458    
     24100   0.94325599    -5.3161663      0             -3.904112       2.6746535    
     24200   0.97274984    -5.3047578      0             -3.8485513      2.6757391    
     24300   1.0389556     -5.3287067      0             -3.7733903      2.5962318    
     24400   1.0586911     -5.3221542      0             -3.7372936      2.6792953    
     24500   1.0308834     -5.2850634      0             -3.7418309      2.9390869    
     24600   1.0475061     -5.3279634      0             -3.7598468      2.7081683    
     24700   0.97854111    -5.2612236      0             -3.7963476      2.9746142    
     24800   0.9975996     -5.3396088      0             -3.8462022      2.6150825    
     24900   1.0146257     -5.407111       0             -3.8882163      2.2510137    
     25000   0.96956216    -5.35611        0             -3.9046754      2.5490132    
     25100   0.98498119    -5.3766858      0             -3.902169       2.3863159    
     25200   0.98159067    -5.3403224      0             -3.8708812      2.5334038    
     25300   0.99699488    -5.3168056      0             -3.8243043      2.6451025    
     25400   1.014793      -5.2863372      0             -3.767192       2.8672589    
     25500   1.0403302     -5.2654961      0             -3.7081218      2.9838975    
     25600   1.0819636     -5.275136       0             -3.6554365      2.9658811    
     25700   1.1065741     -5.271327       0             -3.6147856      2.9553768    
     25800   1.0988541     -5.2861248      0             -3.6411402      2.8292299    
     25900   1.0501412     -5.3174418      0             -3.7453803      2.6844003    
     26000   1.0432816     -5.385749       0             -3.8239564      2.3627202    
     26100   1.0174137     -5.3933178      0             -3.8702495      2.3016832    
     26200   0.97342402    -5.354101       0             -3.8968853      2.3842807    
     26300   1.0231347     -5.4327542      0             -3.9011216      2.1372939    
     26400   0.96573523    -5.3389965      0             -3.8932909      2.4521313    
     26500   0.99399424    -5.3526401      0             -3.8646307      2.4570247    
     26600   0.96482696    -5.2628011      0             -3.8184552      2.9102303    
     26700   1.0188359     -5.2942488      0             -3.7690515      2.8337116    
     26800   1.061298      -5.3402585      0             -3.7514954      2.58585      
     26900   1.0245354     -5.2982104      0             -3.7644808      2.8331796    
     27000   0.95844856    -5.2538069      0             -3.8190094      3.060436     
     27100   1.0002438     -5.3945304      0             -3.8971654      2.3870813    
     27200   0.89541207    -5.2848601      0             -3.9444282      2.7062803    
     27300   0.93175573    -5.3330365      0             -3.9381982      2.6106846    
     27400   0.96864401    -5.3702015      0             -3.9201414      2.3116302    
     27500   0.93321221    -5.2969761      0             -3.8999575      2.6853582    
     27600   0.95945564    -5.3115553      0             -3.8752502      2.7833416    
     27700   0.96538486    -5.2894212      0             -3.8442401      2.8179339    
     27800   0.99420044    -5.3047934      0             -3.8164754      2.7354136    
     27900   1.0161121     -5.3114045      0             -3.7902847      2.7594189    
     28000   1.0218638     -5.3046483      0             -3.7749181      2.7695345    
     28100   1.0178989     -5.3013926      0             -3.7775979      2.8078517    
     28200   0.9537765     -5.2471226      0             -3.8193192      2.9139825    
     28300   0.97836789    -5.3832496      0             -3.9186329      2.2823795    
     28400   0.97304245    -5.4325783      0             -3.9759338      2.0140363    
     28500   0.93468219    -5.3832755      0             -3.9840563      2.3725711    
     28600   1.0038323     -5.4574683      0             -3.9547314      2.0819201    
     28700   0.9851091     -5.3733742      0             -3.8986659      2.2812       
     28800   1.002567      -5.3472007      0             -3.8463579      2.4961913    
     28900   0.99259315    -5.3065651      0             -3.8206532      2.7141831    
     29000   1.0492867     -5.3835405      0             -3.8127582      2.3711788    
     29100   1.0390471     -5.3747503      0             -3.8192967      2.4797909    
     29200   0.96881596    -5.2937248      0             -3.8434073      2.7486104    
     29300   0.97837136    -5.3352161      0             -3.8705942      2.5429123    
     29400   0.97154845    -5.3566844      0             -3.9022764      2.4242902    
     29500   0.9517572     -5.3751056      0             -3.9503251      2.3869083    
     29600   0.94667073    -5.4140138      0             -3.9968478      2.15937      
     29700   0.93492828    -5.4114317      0             -4.0118441      2.1272043    
     29800   0.94950411    -5.3963655      0             -3.9749579      2.2676607    
     29900   0.95574427    -5.3248122      0             -3.894063       2.4849278    
     30000   0.99712419    -5.3366547      0             -3.8439598      2.5491617    
     30100   0.99284528    -5.3134592      0             -3.8271699      2.6081311    
     30200   0.97028154    -5.271044       0             -3.8185326      2.9420598    
     30300   0.98323094    -5.2890916      0             -3.8171949      2.8271693    
     30400   0.99428741    -5.3065104      0             -3.8180622      2.7274025    
     30500   1.0117826     -5.3375141      0             -3.8228755      2.5405612    
     30600   0.99975032    -5.3471623      0             -3.8505361      2.5222828    
     30700   0.97829781    -5.375127       0             -3.9106152      2.3445779    
     30800   0.93401626    -5.3605312      0             -3.9623089      2.406206     
     30900   0.97951593    -5.4398957      0             -3.9735604      2.0836424    
     31000   0.93165828    -5.3485001      0             -3.9538076      2.3790662    
     31100   1.0180002     -5.4178028      0             -3.8938564      2.2340011    
     31200   0.98216219    -5.2978139      0             -3.8275171      2.6883429    
     31300   0.99228202    -5.2809171      0             -3.7954709      2.9090509    
     31400   0.9817838     -5.2618272      0             -3.7920969      2.9649739    
     31500   1.004355      -5.2993932      0             -3.7958738      2.796776     
     31600   1.0407558     -5.3773592      0             -3.8193477      2.3797203    
     31700   0.98115638    -5.3147137      0             -3.8459226      2.6405264    
     31800   0.99290143    -5.3478857      0             -3.8615123      2.4996381    
     31900   0.94451075    -5.2955404      0             -3.8816078      2.7162722    
     32000   0.95311231    -5.3362999      0             -3.9094908      2.4606445    
     32100   0.95500063    -5.3698951      0             -3.9402592      2.405708     
     32200   0.9276405     -5.360247       0             -3.9715692      2.4094784    
     32300   0.93289379    -5.3690196      0             -3.9724776      2.3635933    
     32400   0.95251803    -5.3556251      0             -3.9297056      2.4084979    
     32500   0.99942954    -5.3600931      0             -3.8639471      2.388889     
     32600   1.014847      -5.3328225      0             -3.8135965      2.5846368    
     32700   1.0291421     -5.3299216      0             -3.7892958      2.6659261    
     32800   0.99711717    -5.2809443      0             -3.7882598      2.8747774    
     32900   1.0062922     -5.3099676      0             -3.8035481      2.6465308    
     33000   0.9772844     -5.2891421      0             -3.8261473      2.8287331    
     33100   0.98266807    -5.3404516      0             -3.8693975      2.5196562    
     33200   0.93910502    -5.340287       0             -3.9344468      2.5392202    
     33300   0.92669686    -5.3803275      0             -3.9930623      2.2639008    
     33400   0.98778917    -5.4922913      0             -4.0135709      1.8509684    
     33500   0.92834844    -5.3824155      0             -3.9926778      2.3033573    
     33600   0.91628895    -5.281821       0             -3.9101364      2.7986015    
     33700   0.98929003    -5.3127027      0             -3.8317355      2.6823374    
     33800   1.0005321     -5.3102388      0             -3.8124423      2.7993826    
     33900   0.98968743    -5.2890494      0             -3.8074873      2.804484     
     34000   1.0081669     -5.325057       0             -3.8158312      2.5750325    
     34100   0.9708968     -5.2981722      0             -3.8447396      2.7091971    
     34200   0.98118859    -5.3495933      0             -3.880754       2.4877952    
     34300   0.96834497    -5.3604659      0             -3.9108535      2.3795557    
     34400   0.96637098    -5.3692702      0             -3.9226128      2.3559441    
     34500   0.996759      -5.4032772      0             -3.911129       2.2947755    
     34600   0.97790147    -5.3292649      0             -3.8653464      2.5862441    
     34700   1.0301745     -5.330149       0             -3.7879778      2.6160498    
     34800   1.0248347     -5.2761077      0             -3.7419301      2.9128955    
     34900   1.0740189     -5.3389921      0             -3.7311859      2.6877286    
     35000   1.0569686     -5.3396761      0             -3.757394       2.5569538    
     35100   1.0362867     -5.3518052      0             -3.8004839      2.5271154    
     35200   1.0020485     -5.3426085      0             -3.8425419      2.6073572    
     35300   0.96589159    -5.3078365      0             -3.8618968      2.6702723    
     35400   0.99157817    -5.3491607      0             -3.8647682      2.4654588    
     35500   0.98057517    -5.3342322      0             -3.8663112      2.5366145    
     35600   1.0151173     -5.3873594      0             -3.8677287      2.3410325    
     35700   0.98265979    -5.3366382      0             -3.8655965      2.5973157    
     35800   0.99871959    -5.3494701      0             -3.8543869      2.5561539    
     35900   1.0043535     -5.3259945      0             -3.8224773      2.5626646    
     36000   1.0025523     -5.258146       0             -3.7573253      3.0594799    
     36100   1.032163      -5.2496715      0             -3.7045235      3.0667363    
     36200   1.0611486     -5.2970407      0             -3.7085013      2.834146     
     36300   1.0518257     -5.3388747      0             -3.7642916      2.7333609    
     36400   1.0246551     -5.3673979      0             -3.8334893      2.4816331    
     36500   0.95768017    -5.299423       0             -3.8657758      2.7853908    
     36600   0.99584252    -5.3670311      0             -3.8762549      2.5010815    
     36700   1.0033702     -5.3745569      0             -3.8725118      2.444923     
     36800   0.98295075    -5.3359093      0             -3.864432       2.6134502    
     36900   0.98844369    -5.3249795      0             -3.8452793      2.6872137    
     37000   0.99632065    -5.3043287      0             -3.8128367      2.8299043    
     37100   1.0256838     -5.296093       0             -3.7606444      2.7661937    
     37200   1.0331838     -5.2390892      0             -3.6924131      2.9730812    
     37300   1.1240405     -5.3330385      0             -3.6503498      2.8812495    
     37400   1.0462476     -5.2433762      0             -3.6771435      3.027268     
     37500   1.0323114     -5.3246428      0             -3.7792727      2.6485255    
     37600   0.98433546    -5.3267982      0             -3.853248       2.6004941    
     37700   0.98481236    -5.3463232      0             -3.8720591      2.4892105    
     37800   0.98011401    -5.3559071      0             -3.8886764      2.423507     
     37900   0.99895277    -5.3853285      0             -3.8898962      2.3804042    
     38000   1.0207206     -5.4115422      0             -3.8835234      2.2413145    
     38100   0.92544448    -5.2552515      0             -3.8698611      2.9254228    
     38200   1.0137787     -5.3565931      0             -3.8389664      2.450632     
     38300   1.0305627     -5.336175       0             -3.7934226      2.6031049    
     38400   1.049409      -5.330054       0             -3.7590888      2.6699418    
     38500   1.0221676     -5.275646       0             -3.7454611      2.8262163    
     38600   1.032051      -5.3033271      0             -3.7583468      2.7564981    
     38700   1.0546484     -5.4053296      0             -3.826521       2.3159958    
     38800   0.99869888    -5.403635       0             -3.9085828      2.3032226    
     38900   1.0041323     -5.4397033      0             -3.9365172      2.084838     
     39000   0.9813857     -5.4076201      0             -3.9384857      2.2345821    
     39100   0.96129868    -5.3540931      0             -3.915029       2.5097707    
     39200   0.99747438    -5.3735008      0             -3.8802816      2.3682058    
     39300   1.041074      -5.3960847      0             -3.8375969      2.4295457    
     39400   1.0675234     -5.3996222      0             -3.8015396      2.3328924    
     39500   1.0341537     -5.3383861      0             -3.790258       2.5962458    
     39600   1.0211151     -5.3295365      0             -3.8009271      2.6934771    
     39700   1.0095965     -5.3320294      0             -3.8206635      2.5766096    
     39800   1.0298397     -5.3717685      0             -3.8300984      2.466646     
     39900   0.99608906    -5.3236765      0             -3.8325311      2.6512065    
     40000   1.0324459     -5.3882681      0             -3.8426967      2.2594767    
     40100   1.0098955     -5.3641184      0             -3.8523049      2.4892911    
     40200   0.97129555    -5.3167844      0             -3.8627549      2.7450017    
     40300   0.99780725    -5.3544547      0             -3.8607372      2.5133119    
     40400   0.98582512    -5.3314597      0             -3.8556795      2.6067769    
     40500   1.0390666     -5.39919        0             -3.8437073      2.27814      
     40600   0.97378599    -5.2785768      0             -3.8208192      2.9015377    
     40700   1.0386073     -5.3450045      0             -3.7902094      2.5622011    
     40800   1.0181644     -5.2948416      0             -3.7706496      2.7308033    
     40900   1.0515635     -5.3436398      0             -3.7694493      2.5646408    
     41000   1.0151281     -5.3181628      0             -3.798516       2.7124976    
     41100   0.99574016    -5.347315       0             -3.8566919      2.5279469    
     41200   0.96412218    -5.3530466      0             -3.9097557      2.4654708    
     41300   0.96470554    -5.3810056      0             -3.9368414      2.3093057    
     41400   0.93654825    -5.340946       0             -3.9389332      2.4336049    
     41500   0.98004845    -5.3774863      0             -3.9103538      2.3534996    
     41600   0.99625896    -5.3523736      0             -3.860974       2.5589713    
     41700   1.0384461     -5.3644221      0             -3.8098683      2.4963473    
     41800   1.0221169     -5.3256429      0             -3.7955339      2.7610045    
     41900   1.056266      -5.3833586      0             -3.8021284      2.3810418    
     42000   1.0227523     -5.354874       0             -3.8238137      2.5221805    
     42100   0.98555622    -5.3206196      0             -3.845242       2.640269     
     42200   1.00938       -5.368457       0             -3.8574152      2.4534947    
     42300   0.98873991    -5.3470167      0             -3.8668731      2.5559814    
     42400   0.98726181    -5.3612542      0             -3.8833233      2.4605215    
     42500   0.95679369    -5.3339758      0             -3.9016557      2.5650743    
     42600   0.94496579    -5.3232917      0             -3.9086779      2.725477     
     42700   0.9738433     -5.3526302      0             -3.8947868      2.4616684    
     42800   0.97663049    -5.3037595      0             -3.8417436      2.6914819    
     42900   1.0070411     -5.2815878      0             -3.7740473      2.815821     
     43000   1.0370884     -5.2914496      0             -3.7389282      2.8388863    
     43100   1.0858732     -5.3583044      0             -3.7327522      2.5038417    
     43200   1.0602824     -5.3390711      0             -3.7518284      2.5500102    
     43300   1.0259967     -5.331443       0             -3.7955259      2.619259     
     43400   0.98777921    -5.3360576      0             -3.8573522      2.5831587    
     43500   0.96558273    -5.3511025      0             -3.9056252      2.4712106    
     43600   0.9671328     -5.3694021      0             -3.9216043      2.4748198    
     43700   0.99458369    -5.4061764      0             -3.9172846      2.2604675    
     43800   1.0050864     -5.4047738      0             -3.9001594      2.2136309    
     43900   0.95979503    -5.3165756      0             -3.8797624      2.6770037    
     44000   1.0128652     -5.3720065      0             -3.8557473      2.4891461    
     44100   0.95682038    -5.265          0             -3.8326399      2.9335915    
     44200   0.95853593    -5.2428249      0             -3.8078966      3.1536901    
     44300   1.0490701     -5.3544156      0             -3.7839576      2.5086333    
     44400   1.0311612     -5.3067615      0             -3.7631132      2.6364286    
     44500   1.0665641     -5.3594651      0             -3.7628186      2.5262888    
     44600   1.019134      -5.3380912      0             -3.8124475      2.5021689    
     44700   1.0091615     -5.4012591      0             -3.8905444      2.2541003    
     44800   0.92488238    -5.3247718      0             -3.9402228      2.5589814    
     44900   0.96789917    -5.3911627      0             -3.9422176      2.3612385    
     45000   0.94553361    -5.3289862      0             -3.9135224      2.5240323    
     45100   1.0093615     -5.3731476      0             -3.8621333      2.484865     
     45200   1.0142442     -5.3333385      0             -3.815015       2.6655866    
     45300   1.0564884     -5.3646506      0             -3.7830876      2.581956     
     45400   1.0273285     -5.307648       0             -3.7697373      2.8092415    
     45500   1.0286877     -5.3206373      0             -3.7806918      2.634953     
     45600   1.0564551     -5.3871503      0             -3.805637       2.421943     
     45700   1.0003058     -5.3294051      0             -3.8319474      2.6947863    
     45800   1.0106666     -5.3613442      0             -3.8483763      2.5550063    
     45900   1.023945      -5.388167       0             -3.8553213      2.3118425    
     46000   0.99930619    -5.3574578      0             -3.8614964      2.4846809    
     46100   1.0049143     -5.3639888      0             -3.859632       2.4410097    
     46200   1.0155451     -5.3803207      0             -3.8600496      2.4299125    
     46300   1.0474022     -5.4101788      0             -3.8422177      2.310079     
     46400   0.9692999     -5.2789355      0             -3.8278936      2.8933412    
     46500   1.0375843     -5.3486506      0             -3.795387       2.4425329    
     46600   1.0388407     -5.3180484      0             -3.7629039      2.680934     
     46700   1.0377099     -5.2958759      0             -3.7424242      2.8498626    
     46800   1.0605195     -5.3445917      0             -3.756994       2.5803469    
     46900   0.98075445    -5.2806818      0             -3.8124924      2.8117182    
     47000   1.0237049     -5.4134301      0             -3.8809439      2.3289192    
     47100   0.99574554    -5.4171465      0             -3.9265154      2.3203613    
     47200   0.96742206    -5.3868931      0             -3.9386622      2.3050478    
     47300   0.98899951    -5.4073518      0             -3.9268196      2.2654617    
     47400   0.9740234     -5.3518014      0             -3.8936884      2.511005     
     47500   1.0045846     -5.3543527      0             -3.8504896      2.4669062    
     47600   0.98627414    -5.2842011      0             -3.8077487      2.7871153    
     47700   1.0032085     -5.2741549      0             -3.7723518      2.9106305    
     47800   1.0601168     -5.3535083      0             -3.7665134      2.5611819    
     47900   1.0344485     -5.3289752      0             -3.7804059      2.5848001    
     48000   0.99889198    -5.2961614      0             -3.8008201      2.7981424    
     48100   0.99040079    -5.2960642      0             -3.8134342      2.7567674    
     48200   0.98493875    -5.2998547      0             -3.8254014      2.6240432    
     48300   0.98219068    -5.3082257      0             -3.8378862      2.7279793    
     48400   1.0612824     -5.4433784      0             -3.8546386      2.1502896    
     48500   0.98198955    -5.3591838      0             -3.8891455      2.457995     
     48600   0.92380445    -5.3218809      0             -3.9389456      2.5395935    
     48700   0.96965136    -5.4239106      0             -3.9723426      2.155665     
     48800   0.96637903    -5.4237812      0             -3.9771118      2.1092724    
     48900   0.97732919    -5.3966083      0             -3.9335465      2.3153074    
     49000   1.0147484     -5.3628653      0             -3.8437869      2.4519366    
     49100   1.0441396     -5.3529816      0             -3.7899046      2.5475389    
     49200   1.0077088     -5.2840706      0             -3.7755306      2.8791033    
     49300   1.0210304     -5.3158367      0             -3.7873542      2.7326066    
     49400   1.0320743     -5.3617403      0             -3.8167251      2.5313517    
     49500   1.0457341     -5.4241599      0             -3.858696       2.2622374    
     49600   0.99692605    -5.3963001      0             -3.9039018      2.3167549    
     49700   0.91699144    -5.306062       0             -3.9333258      2.6506791    
     49800   0.95108279    -5.3593676      0             -3.9355967      2.4198544    
     49900   0.97961623    -5.35853        0             -3.8920445      2.4356295    
     50000   0.99046121    -5.2621312      0             -3.7794108      2.9207862    
Loop time of 27.594 on 1 procs for 50000 steps with 500 atoms

Performance: 782778.591 tau/day, 1811.987 timesteps/s, 905.994 katom-step/s
94.5% CPU use with 1 MPI tasks x 1 OpenMP threads

MPI task timing breakdown:
Section |  min time  |  avg time  |  max time  |%varavg| %total
---------------------------------------------------------------
Pair    | 5.5442     | 5.5442     | 5.5442     |   0.0 | 20.09
Neigh   | 3.3206     | 3.3206     | 3.3206     |   0.0 | 12.03
Comm    | 0.32405    | 0.32405    | 0.32405    |   0.0 |  1.17
Output  | 18.07      | 18.07      | 18.07      |   0.0 | 65.48
Modify  | 0.25325    | 0.25325    | 0.25325    |   0.0 |  0.92
Other   |            | 0.08224    |            |       |  0.30

Nlocal:            500 ave         500 max         500 min
Histogram: 1 0 0 0 0 0 0 0 0 0
Nghost:           1816 ave        1816 max        1816 min
Histogram: 1 0 0 0 0 0 0 0 0 0
Neighs:          18823 ave       18823 max       18823 min
Histogram: 1 0 0 0 0 0 0 0 0 0

Total # of neighbors = 18823
Ave neighs/atom = 37.646
Neighbor list builds = 6087
Dangerous builds = 0
Total wall time: 0:00:27
