LAMMPS (7 Feb 2024 - Development - patch_7Feb2024_update1-147-g4d89741d8c)
  using 32 OpenMP thread(s) per MPI task
# Initialization
units       metal
dimension   3
boundary    p p p     # Periodic in x, y and free in z direction
atom_style  atomic

# User variables
variable annealtemp equal 300
variable strikeangle equal 30
variable strikespeed equal 3606.17656613

# Computed variables
variable posx equal 42.885349000000005+(5*cos((90-${strikeangle}))*PI/180)
variable posx equal 42.885349000000005+(5*cos((90-30))*PI/180)
variable posz equal 710+(5*sin((90-${strikeangle})*PI/180))
variable posz equal 710+(5*sin((90-30)*PI/180))
variable posy equal 34.3068485
variable velx equal ${strikespeed}*cos((90-${strikeangle})*PI/180)
variable velx equal 3606.17656613*cos((90-${strikeangle})*PI/180)
variable velx equal 3606.17656613*cos((90-30)*PI/180)
variable velz equal ${strikespeed}*sin((90-${strikeangle})*PI/180)
variable velz equal 3606.17656613*sin((90-${strikeangle})*PI/180)
variable velz equal 3606.17656613*sin((90-30)*PI/180)

# Create Atom Structure (assuming diamond cubic lattice)
lattice     diamond 3.567 orient x 1 1 0 orient y 0 0 -1 orient z -1 1 0  # Diamond lattice constant for carbon in Angstroms with 1 0 0 x direction orientation.
Lattice spacing in x,y,z = 5.0444998 3.567 5.0444998
region      box block 0 20 0 20 0 200 units lattice
create_box  2 box
Created orthogonal box = (0 0 0) to (100.89 71.34 1008.9)
  2 by 2 by 16 MPI processor grid
region      slab block 0 20 0 20 60 140 units lattice
create_atoms 1 region slab
Created 513480 atoms
  using lattice units in orthogonal box = (0 0 0) to (100.89 71.34 1008.9)
  create_atoms CPU = 0.005 seconds

# Add tin atom
create_atoms 2 single ${posx} ${posy} ${posz} units lattice  # Position tin atom above the slab
create_atoms 2 single 42.8022352882651 ${posy} ${posz} units lattice  
create_atoms 2 single 42.8022352882651 34.3068485 ${posz} units lattice  
create_atoms 2 single 42.8022352882651 34.3068485 714.330127018922 units lattice  
Created 0 atoms
  using lattice units in orthogonal box = (0 0 0) to (100.89 71.34 1008.9)
  create_atoms CPU = 0.000 seconds

# Define Potential
pair_style      hybrid tersoff lj/cut 2.5  # tersoff
pair_coeff      * * tersoff /home/stovey/work/projects/quantum-lab/ballistic-diamond/lammps/potentials/SiC.tersoff C C # You may need to adjust the file name depending on your LAMMPS distribution
Reading tersoff potential file /home/stovey/work/projects/quantum-lab/ballistic-diamond/lammps/potentials/SiC.tersoff with DATE: 2011-04-26
pair_coeff      1 2 lj/cut 0.01058 3.664 12.824 # Mixed LJ parameters for C-Sn interactions, adjust as necessary
pair_coeff      2 2 lj/cut 0.01029 3.55  # Example LJ parameters for Sn-Sn, adjust as needed


# Settings for carbon
mass        1 12.01
# Settings for tin
mass        2 118.71  # Mass of tin atom

# Create the atom groups
group           diamond type 1
513480 atoms in group diamond
group           tin type 2
0 atoms in group tin

velocity    diamond create 20 4928459 rot yes dist gaussian  # Initialize velocities
velocity    tin set 0.0 0.0 0.0 units box # Freeze for the warmup

# --------------------- #
# Diamond Equilibration #
# --------------------- #

# Define settings for dynamics
fix diamondNVT all nvt temp 300 300 $(100.0*dt)
fix diamondNVT all nvt temp 300 300 0.10000000000000000555
fix tinfreeze tin setforce 0.0 0.0 0.0

# Thermo output
thermo      1000                # Output thermo info every 1000 steps

# Dump settings for MD
dump equilibrate all custom 10000 /work/stovey/ballistic-diamond/tersoff-sweep/velocity-${strikespeed}/temperature-${annealtemp}/angle-${strikeangle}/equilibration.lammpstraj id type x y z vx vy vz
dump equilibrate all custom 10000 /work/stovey/ballistic-diamond/tersoff-sweep/velocity-3606.17656613/temperature-${annealtemp}/angle-${strikeangle}/equilibration.lammpstraj id type x y z vx vy vz
dump equilibrate all custom 10000 /work/stovey/ballistic-diamond/tersoff-sweep/velocity-3606.17656613/temperature-300/angle-${strikeangle}/equilibration.lammpstraj id type x y z vx vy vz
dump equilibrate all custom 10000 /work/stovey/ballistic-diamond/tersoff-sweep/velocity-3606.17656613/temperature-300/angle-30/equilibration.lammpstraj id type x y z vx vy vz
dump_modify equilibrate sort id

timestep 0.002

# Run Simulation 100 ps equilibration
run         50000              # Number of timesteps to simulate
Neighbor list info ...
  update: every = 1 steps, delay = 0 steps, check = yes
  max neighbors/atom: 2000, page size: 100000
  master list distance cutoff = 14.824
  ghost atom cutoff = 14.824
  binsize = 7.412, bins = 14 10 137
  4 neighbor lists, perpetual/occasional/extra = 4 0 0
  (1) pair tersoff, perpetual, skip from (4)
      attributes: full, newton on, cut 4.1
      pair build: skip
      stencil: none
      bin: none
  (2) pair lj/cut, perpetual, skip from (3)
      attributes: half, newton on
      pair build: skip
      stencil: none
      bin: none
  (3) neighbor class addition, perpetual
      attributes: half, newton on
      pair build: half/bin/atomonly/newton
      stencil: half/bin/3d
      bin: standard
  (4) neighbor class addition, perpetual
      attributes: full, newton on, cut 4.1
      pair build: full/bin/atomonly
      stencil: full/bin/3d
      bin: standard
Per MPI rank memory allocation (min/avg/max) = 67.92 | 108.7 | 169.7 Mbytes
   Step          Temp          E_pair         E_mol          TotEng         Press     
         0   20            -3778559.3      0             -3777231.9     -1843.8855    
      1000   158.7318      -3767833.1      0             -3757297.6      4732.5254    
      2000   308.32461     -3757960.2      0             -3737496        1220.7739    
      3000   303.58079     -3758316.3      0             -3738166.9      9049.0075    
      4000   297.53142     -3758261.4      0             -3738513.6      1721.4092    
      5000   296.81878     -3758549.7      0             -3738849.2      8190.5103    
      6000   299.41201     -3758390.6      0             -3738517.9      3020.0053    
      7000   301.46244     -3758392.1      0             -3738383.3      6660.2581    
      8000   300.7891      -3758306.8      0             -3738342.8      4885.8495    
      9000   299.97689     -3758423.6      0             -3738513.4      4746.8541    
     10000   298.33745     -3758480.3      0             -3738679        6977.4554    
     11000   299.24628     -3758340.6      0             -3738478.9      2669.8721    
     12000   299.80703     -3758374.8      0             -3738475.9      9638.7932    
     13000   300.52322     -3758115        0             -3738168.6      917.46112    
     14000   300.48956     -3758341.2      0             -3738397        9555.0518    
     15000   300.2714      -3758182.9      0             -3738253.2      1476.2613    
     16000   299.97167     -3758410.5      0             -3738500.6      8808.1763    
     17000   299.51415     -3758347.7      0             -3738468.2      2603.0261    
     18000   299.66809     -3758517        0             -3738627.3      7334.1312    
     19000   300.18039     -3758373.3      0             -3738449.6      4279.0681    
     20000   301.4808      -3758379.5      0             -3738369.5      5499.1273    
     21000   300.70681     -3758425.4      0             -3738466.8      6227.0775    
     22000   299.09492     -3758435.4      0             -3738583.7      3261.2161    
     23000   298.54703     -3758504.4      0             -3738689.2      8182.2642    
     24000   299.79924     -3758174        0             -3738275.6      1125.1983    
     25000   301.23692     -3758285.8      0             -3738292        9870.8339    
     26000   301.47235     -3758162        0             -3738152.5      1188.7775    
     27000   299.23247     -3758410.6      0             -3738549.9      9131.2577    
     28000   298.63082     -3758289.7      0             -3738468.9      2037.6241    
     29000   300.28789     -3758458.5      0             -3738527.6      7975.4617    
     30000   301.13317     -3758320.7      0             -3738333.8      3638.6494    
     31000   300.94094     -3758441.7      0             -3738467.5      6160.051     
     32000   299.72092     -3758491.9      0             -3738598.8      5429.8008    
     33000   299.46813     -3758475.3      0             -3738598.9      4234.1216    
     34000   300.24443     -3758470.8      0             -3738542.9      7520.242     
     35000   300.82162     -3758224.3      0             -3738258.1      2285.2832    
     36000   300.79743     -3758382.6      0             -3738417.9      9689.9309    
     37000   299.83631     -3758191.2      0             -3738290.3      901.74558    
     38000   299.14459     -3758393.8      0             -3738538.9      9497.0533    
     39000   299.94504     -3758194.3      0             -3738286.3      1719.4827    
     40000   301.03642     -3758380.1      0             -3738399.6      8579.031     
     41000   300.11372     -3758296.5      0             -3738377.3      2876.1254    
     42000   299.41601     -3758496.9      0             -3738624        6898.7245    
     43000   299.70205     -3758467.7      0             -3738575.8      4695.7244    
     44000   300.37091     -3758400.5      0             -3738464.2      5005.5189    
     45000   300.83737     -3758426.4      0             -3738459.1      6736.5796    
     46000   299.90315     -3758351.6      0             -3738446.4      3083.1743    
     47000   299.97854     -3758499.5      0             -3738589.2      8608.0421    
     48000   300.0457      -3758191.7      0             -3738277        1041.3619    
     49000   300.37942     -3758322.6      0             -3738385.7      9900.5588    
     50000   300.26299     -3758150.1      0             -3738220.9      1295.6764    
Loop time of 1490.1 on 2048 procs for 50000 steps with 513480 atoms

Performance: 5.798 ns/day, 4.139 hours/ns, 33.555 timesteps/s, 17.230 Matom-step/s
99.5% CPU use with 64 MPI tasks x 32 OpenMP threads

MPI task timing breakdown:
Section |  min time  |  avg time  |  max time  |%varavg| %total
---------------------------------------------------------------
Pair    | 0.045011   | 511.92     | 1299.1     |2643.7 | 34.35
Neigh   | 0.0014626  | 4.0706     | 10.506     | 241.6 |  0.27
Comm    | 0.026644   | 212.15     | 1161.6     |2522.1 | 14.24
Output  | 0.059174   | 0.16715    | 0.28022    |  16.1 |  0.01
Modify  | 14.566     | 755.98     | 1482.5     |2642.3 | 50.73
Other   |            | 5.809      |            |       |  0.39

Nlocal:        8023.12 ave       20144 max           0 min
Histogram: 32 0 8 0 0 0 0 0 0 24
Nghost:        26735.4 ave       64185 max           0 min
Histogram: 32 0 0 8 0 0 0 0 0 24
Neighs:              0 ave           0 max           0 min
Histogram: 64 0 0 0 0 0 0 0 0 0

Total # of neighbors = 0
Ave neighs/atom = 0
Neighbor list builds = 43
Dangerous builds = 0
undump equilibrate
# -------------------- #
# Collision simulation #
# -------------------- #

# Define settings for dynamics
velocity tin set -${velx} 0.0 -${velz} units box # Shoot the tin atom towards the diamond
velocity tin set -1803.088283065 0.0 -${velz} units box 
velocity tin set -1803.088283065 0.0 -3123.04051680071 units box 
unfix tinfreeze

# Thermo output
thermo      1000                # Output thermo info every 1000 steps

# Dump settings for MD
dump collision all custom 100 /work/stovey/ballistic-diamond/tersoff-sweep/velocity-${strikespeed}/temperature-${annealtemp}/angle-${strikeangle}/collision.lammpstraj id type x y z vx vy vz
dump collision all custom 100 /work/stovey/ballistic-diamond/tersoff-sweep/velocity-3606.17656613/temperature-${annealtemp}/angle-${strikeangle}/collision.lammpstraj id type x y z vx vy vz
dump collision all custom 100 /work/stovey/ballistic-diamond/tersoff-sweep/velocity-3606.17656613/temperature-300/angle-${strikeangle}/collision.lammpstraj id type x y z vx vy vz
dump collision all custom 100 /work/stovey/ballistic-diamond/tersoff-sweep/velocity-3606.17656613/temperature-300/angle-30/collision.lammpstraj id type x y z vx vy vz
dump_modify collision sort id

timestep 0.0001
# Run Simulation 5 ps collision
run         50000              # Number of timesteps to simulate
Per MPI rank memory allocation (min/avg/max) = 67.92 | 108.7 | 169.7 Mbytes
   Step          Temp          E_pair         E_mol          TotEng         Press     
     50000   300.26299     -3758150.1      0             -3738220.9      1295.6764    
     51000   305.78216     -3758965.5      0             -3738670        835.4038     
     52000   299.85251     -3759176.3      0             -3739274.4      586.11701    
     53000   297.16711     -3759350.7      0             -3739627        560.33733    
     54000   297.70849     -3759390.2      0             -3739630.5      830.44605    
     55000   299.65739     -3759245        0             -3739356.1      1522.7027    
     56000   302.33555     -3759180.6      0             -3739113.9      2252.4804    
     57000   302.27261     -3759192.9      0             -3739130.4      2782.3825    
     58000   300.08139     -3759317.4      0             -3739400.3      3059.189     
     59000   298.85886     -3759505.5      0             -3739669.5      3529.3419    
     60000   298.60942     -3759570.3      0             -3739750.9      4287.5664    
     61000   299.05674     -3759468.7      0             -3739619.6      4784.4016    
     62000   300.89884     -3759395.6      0             -3739424.2      5283.8166    
     63000   301.55244     -3759372.9      0             -3739358.2      5881.8979    
     64000   301.06878     -3759469.9      0             -3739487.3      6279.4535    
     65000   298.78149     -3759512.5      0             -3739681.6      6889.637     
     66000   298.31386     -3759558.7      0             -3739758.9      7334.6211    
     67000   299.20844     -3759505        0             -3739645.9      7866.5593    
     68000   300.47733     -3759389.5      0             -3739446.1      8251.0252    
     69000   301.16682     -3759315.2      0             -3739326        8680.2253    
     70000   300.91603     -3759349.6      0             -3739377.1      8940.6649    
     71000   299.81646     -3759433.9      0             -3739534.4      9321.6923    
     72000   298.42319     -3759452.4      0             -3739645.3      9528.1369    
     73000   299.71036     -3759503.5      0             -3739611        9778.3457    
     74000   299.97133     -3759375.3      0             -3739465.5      9936.6832    
     75000   301.31719     -3759346.1      0             -3739346.9      9847.5647    
     76000   301.25996     -3759364        0             -3739368.7      9491.2615    
     77000   299.8773      -3759423.1      0             -3739519.5      8776.0978    
     78000   298.6885      -3759489.8      0             -3739665.1      8076.4797    
     79000   298.85203     -3759518.7      0             -3739683.2      7634.8857    
     80000   299.83923     -3759476.3      0             -3739575.2      7317.0353    
     81000   301.22239     -3759444.5      0             -3739451.7      6699.8333    
     82000   300.93322     -3759404        0             -3739430.4      5996.6645    
     83000   300.69535     -3759485.8      0             -3739528        5516.7689    
     84000   299.11487     -3759501.7      0             -3739648.8      4982.7519    
     85000   298.97749     -3759522.5      0             -3739678.7      4451.4504    
     86000   299.37558     -3759449.3      0             -3739579        4012.7544    
     87000   300.85797     -3759391.5      0             -3739422.9      3418.7045    
     88000   301.03662     -3759301.5      0             -3739321        2982.1923    
     89000   300.2021      -3759254.7      0             -3739329.5      2485.3705    
     90000   299.41987     -3759281.8      0             -3739408.6      2158.8035    
     91000   299.65961     -3759343.7      0             -3739454.6      1756.0131    
     92000   299.48557     -3759280        0             -3739402.4      1495.7323    
     93000   300.19603     -3759199.7      0             -3739275        1090.7407    
     94000   301.09176     -3759153.9      0             -3739169.8      913.77774    
     95000   300.9191      -3759140.6      0             -3739167.9      673.43142    
     96000   300.36011     -3759194.8      0             -3739259.2      570.30216    
     97000   299.20378     -3759217.2      0             -3739358.4      689.42653    
     98000   299.25554     -3759254.4      0             -3739392.1      1076.306     
     99000   300.05366     -3759275.2      0             -3739359.9      1790.7032    
    100000   300.62261     -3759279.2      0             -3739326.2      2437.0734    
Loop time of 1509.29 on 2048 procs for 50000 steps with 513480 atoms

Performance: 0.286 ns/day, 83.850 hours/ns, 33.128 timesteps/s, 17.011 Matom-step/s
99.5% CPU use with 64 MPI tasks x 32 OpenMP threads

MPI task timing breakdown:
Section |  min time  |  avg time  |  max time  |%varavg| %total
---------------------------------------------------------------
Pair    | 0.044179   | 510.36     | 1298.1     |2634.7 | 33.81
Neigh   | 5.296e-05  | 0.188      | 0.48666    |  51.8 |  0.01
Comm    | 0.026778   | 211.74     | 1142.9     |2478.8 | 14.03
Output  | 4.7896     | 15.338     | 26.137     | 163.2 |  1.02
Modify  | 15.9       | 755.28     | 1475.9     |2622.5 | 50.04
Other   |            | 16.39      |            |       |  1.09

Nlocal:        8023.12 ave       20072 max           0 min
Histogram: 32 0 8 0 0 0 0 0 0 24
Nghost:        26736.8 ave       64161 max           0 min
Histogram: 32 0 0 8 0 0 0 0 0 24
Neighs:              0 ave           0 max           0 min
Histogram: 64 0 0 0 0 0 0 0 0 0

Total # of neighbors = 0
Ave neighs/atom = 0
Neighbor list builds = 2
Dangerous builds = 0
undump collision
# -------------------- #
# Annealing Simulation #
# -------------------- #

# Define settings for dynamics
unfix diamondNVT
fix diamondNVT2 all nvt temp ${annealtemp} ${annealtemp} $(100.0*dt)
fix diamondNVT2 all nvt temp 300 ${annealtemp} $(100.0*dt)
fix diamondNVT2 all nvt temp 300 300 $(100.0*dt)
fix diamondNVT2 all nvt temp 300 300 0.010000000000000000208

# Thermo output
thermo      1000                # Output thermo info every 1000 steps

# Dump settings for MD
dump anneal all custom 10000 /work/stovey/ballistic-diamond/tersoff-sweep/velocity-${strikespeed}/temperature-${annealtemp}/angle-${strikeangle}/annealing.lammpstraj id type x y z vx vy vz
dump anneal all custom 10000 /work/stovey/ballistic-diamond/tersoff-sweep/velocity-3606.17656613/temperature-${annealtemp}/angle-${strikeangle}/annealing.lammpstraj id type x y z vx vy vz
dump anneal all custom 10000 /work/stovey/ballistic-diamond/tersoff-sweep/velocity-3606.17656613/temperature-300/angle-${strikeangle}/annealing.lammpstraj id type x y z vx vy vz
dump anneal all custom 10000 /work/stovey/ballistic-diamond/tersoff-sweep/velocity-3606.17656613/temperature-300/angle-30/annealing.lammpstraj id type x y z vx vy vz
dump_modify anneal sort id

timestep 0.001
# Run Simulation 3 ns annealing
run        3000000              # Number of timesteps to simulate
Per MPI rank memory allocation (min/avg/max) = 67.92 | 108.7 | 169.7 Mbytes
   Step          Temp          E_pair         E_mol          TotEng         Press     
    100000   300.62261     -3759279.2      0             -3739326.2      2437.0734    
    101000   299.51073     -3759229.6      0             -3739350.4      7592.2058    
    102000   299.91302     -3759211.1      0             -3739305.2      9254.5214    
    103000   300.0117      -3759186.9      0             -3739274.4      3838.2357    
    104000   299.75506     -3758906.2      0             -3739010.8      628.68081    
    105000   299.87738     -3759234.4      0             -3739330.9      5691.6544    
    106000   299.39233     -3759126.7      0             -3739255.3      9757.7809    
    107000   300.42152     -3759221.7      0             -3739282.1      5711.5646    
    108000   299.79552     -3758955.5      0             -3739057.4      1301.82      
    109000   300.00993     -3759171.4      0             -3739259.1      3603.7229    
    110000   299.66261     -3759209.7      0             -3739320.4      8607.5322    
    111000   299.76835     -3759222.3      0             -3739326        7684.9974    
    112000   299.0211      -3759055.8      0             -3739209.1      2562.3057    
    113000   299.45381     -3759026.3      0             -3739150.8      1822.1097    
    114000   299.64321     -3759252.8      0             -3739364.8      7060.4471    
    115000   299.98356     -3759186.5      0             -3739275.9      9709.836     
    116000   300.15437     -3759207.3      0             -3739285.4      4400.8528    
    117000   300.50456     -3758926.2      0             -3738981.1      653.11931    
    118000   300.42571     -3759242        0             -3739302        5016.9369    
    119000   299.74399     -3759157.4      0             -3739262.7      9555.3443    
    120000   299.4058      -3759219.9      0             -3739347.7      6231.087     
    121000   299.86612     -3758958        0             -3739055.2      1633.967     
    122000   300.29636     -3759111.4      0             -3739180        3045.2563    
    123000   299.60782     -3759179.9      0             -3739294.2      8239.8556    
    124000   300.34758     -3759183.7      0             -3739248.9      8167.9857    
    125000   300.11003     -3759132.2      0             -3739213.2      3000.7349    
    126000   299.88477     -3759017.8      0             -3739113.8      1190.0144    
    127000   299.79224     -3759249.5      0             -3739351.6      6392.8693    
    128000   299.55526     -3759123.4      0             -3739241.2      9967.0129    
    129000   299.99935     -3759197.9      0             -3739286.3      5016.193     
    130000   300.06971     -3758914        0             -3738997.7      798.82698    
    131000   300.33213     -3759207.8      0             -3739274.1      4590.845     
    132000   299.64187     -3759149.8      0             -3739261.9      9191.8703    
    133000   300.69686     -3759219.8      0             -3739261.8      7067.9835    
    134000   299.30019     -3759054        0             -3739188.7      2028.4769    
    135000   300.36939     -3759111.8      0             -3739175.5      2691.4755    
    136000   300.39975     -3759208.5      0             -3739270.2      7775.6908    
    137000   300.31323     -3759186.4      0             -3739253.9      8777.6809    
    138000   299.87283     -3759125.2      0             -3739221.9      3647.2834    
    139000   300.29175     -3758980.6      0             -3739049.5      804.45739    
    140000   300.01041     -3759237.5      0             -3739325.1      5856.6269    
    141000   300.02201     -3759165.9      0             -3739252.8      9895.3932    
    142000   300.18596     -3759231.9      0             -3739307.8      5597.3127    
    143000   300.23351     -3758956        0             -3739028.8      1100.6376    
    144000   300.46692     -3759169        0             -3739226.3      3944.7305    
    145000   299.42004     -3759187.5      0             -3739314.3      8732.9311    
    146000   300.241       -3759174.9      0             -3739247.2      7596.1097    
    147000   299.84179     -3759089.6      0             -3739188.4      2445.68      
    148000   299.79743     -3759015.4      0             -3739117.1      2262.6819    
    149000   299.62236     -3759266        0             -3739379.3      7267.9526    
    150000   299.2666      -3759176.7      0             -3739313.7      9293.0292    
    151000   300.07832     -3759197.9      0             -3739281        4240.6403    
    152000   300.10375     -3758971.1      0             -3739052.5      661.68214    
    153000   300.07282     -3759239        0             -3739322.4      5187.9547    
    154000   300.08792     -3759176.6      0             -3739259        9692.8473    
    155000   300.71374     -3759231.3      0             -3739272.2      6044.9806    
    156000   299.94988     -3758993.7      0             -3739085.3      1433.1944    
    157000   299.89565     -3759128.9      0             -3739224.2      3234.3798    
    158000   299.67985     -3759178.5      0             -3739288.1      8377.5651    
    159000   300.17316     -3759165.3      0             -3739242.1      7921.8865    
    160000   300.1658      -3759080.2      0             -3739157.5      2867.1382    
    161000   299.74979     -3758998.9      0             -3739103.7      1703.5151    
    162000   299.94642     -3759227.1      0             -3739318.9      6589.3081    
    163000   300.4054      -3759169.5      0             -3739230.9      9755.4255    
    164000   299.60725     -3759195.5      0             -3739309.9      4801.3966    
    165000   299.41878     -3758936        0             -3739062.9      669.26438    
    166000   299.537       -3759152.8      0             -3739271.8      4708.3806    
    167000   300.21193     -3759188.5      0             -3739262.8      9450.5455    
    168000   299.78765     -3759246.3      0             -3739348.7      6729.1792    
    169000   300.49655     -3759050        0             -3739105.3      1829.6659    
    170000   299.44697     -3759097.3      0             -3739222.3      2791.4761    
    171000   299.83463     -3759193.7      0             -3739293        7902.7932    
    172000   300.21386     -3759170.7      0             -3739244.8      8404.456     
    173000   300.18372     -3759135.1      0             -3739211.2      3401.3563    
    174000   299.95292     -3758980.3      0             -3739071.7      1146.4415    
    175000   300.17116     -3759220.7      0             -3739297.7      6051.5476    
    176000   300.41349     -3759152.5      0             -3739213.4      9937.819     
    177000   300.06453     -3759238.1      0             -3739322.1      5447.6721    
    178000   299.6325      -3758933.7      0             -3739046.4      911.45162    
    179000   300.39451     -3759167.6      0             -3739229.7      4205.0062    
    180000   300.60804     -3759229        0             -3739276.9      8987.6699    
    181000   299.93547     -3759229        0             -3739321.6      7398.7963    
    182000   299.8514      -3759075.7      0             -3739173.8      2289.0913    
    183000   300.44655     -3759070        0             -3739128.7      2488.68      
    184000   299.38564     -3759251        0             -3739380.1      7482.0995    
    185000   300.52847     -3759178.6      0             -3739231.8      8888.9325    
    186000   300.30067     -3759143.6      0             -3739211.9      4026.3778    
    187000   300.12816     -3758945        0             -3739024.8      833.92956    
    188000   299.90525     -3759237        0             -3739331.6      5411.589     
    189000   300.27475     -3759188.3      0             -3739258.4      9818.9831    
    190000   299.68984     -3759253.7      0             -3739362.6      5893.1686    
    191000   300.28522     -3758951.6      0             -3739020.9      1206.702     
    192000   299.70868     -3759165.2      0             -3739272.8      3530.5499    
    193000   300.13933     -3759181.7      0             -3739260.7      8595.2129    
    194000   299.92637     -3759227.5      0             -3739320.7      7795.3078    
    195000   299.6904      -3759056.1      0             -3739165        2717.3013    
    196000   299.48383     -3759009.4      0             -3739132        2083.0942    
    197000   300.02912     -3759240.1      0             -3739326.4      6857.853     
    198000   299.96565     -3759204.2      0             -3739294.7      9374.0591    
    199000   299.22186     -3759186.8      0             -3739326.8      4583.487     
    200000   299.63266     -3758937        0             -3739049.7      687.70795    
    201000   299.49903     -3759225.5      0             -3739347.1      4824.5225    
    202000   299.78657     -3759162.5      0             -3739264.9      9637.5522    
    203000   299.12905     -3759224.7      0             -3739370.8      6435.0349    
    204000   300.80799     -3759040.4      0             -3739075.1      1598.4196    
    205000   300.44374     -3759109.3      0             -3739168.1      2959.1157    
    206000   299.96698     -3759232.6      0             -3739323.1      8071.2997    
    207000   299.51986     -3759179.5      0             -3739299.6      8152.5597    
    208000   299.88702     -3759126.3      0             -3739222.1      3178.7929    
    209000   300.17296     -3758989.9      0             -3739066.7      1570.6887    
    210000   299.92564     -3759210.8      0             -3739304        6288.6969    
    211000   300.02766     -3759196.9      0             -3739283.4      9758.3211    
    212000   300.21643     -3759221.2      0             -3739295.1      5252.771     
    213000   299.71446     -3758942.8      0             -3739050.1      759.64645    
    214000   300.16066     -3759139.5      0             -3739217.1      4396.3705    
    215000   300.17032     -3759183.2      0             -3739260.2      9261.2958    
    216000   300.6412      -3759192.1      0             -3739237.8      7131.8321    
    217000   300.30926     -3758995.6      0             -3739063.4      2084.009     
    218000   300.26869     -3759093.3      0             -3739163.8      2553.9718    
    219000   300.24258     -3759214.3      0             -3739286.5      7643.6748    
    220000   300.21486     -3759205.6      0             -3739279.6      8555.9667    
    221000   299.92687     -3759143.3      0             -3739236.5      3817.9297    
    222000   300.51845     -3758960.9      0             -3739014.8      1130.2116    
    223000   300.11969     -3759209.7      0             -3739290        5650.7893    
    224000   300.0527      -3759163.5      0             -3739248.3      9811.7638    
    225000   300.36274     -3759219.8      0             -3739284        5842.7007    
    226000   300.47089     -3759006.7      0             -3739063.8      1004.6961    
    227000   300.05574     -3759182.7      0             -3739267.3      3796.3691    
    228000   300.31823     -3759176.1      0             -3739243.3      8849.9422    
    229000   299.50954     -3759192.2      0             -3739313        7681.7718    
    230000   299.2827      -3759073.1      0             -3739209        2587.8626    
    231000   299.75284     -3759085.1      0             -3739189.8      2264.583     
    232000   299.86981     -3759222.3      0             -3739319.2      7082.3116    
    233000   300.47543     -3759157.4      0             -3739214.2      9006.3408    
    234000   299.73586     -3759210.8      0             -3739316.7      4343.3243    
    235000   300.29113     -3758926.3      0             -3738995.3      886.05379    
    236000   300.15452     -3759175.3      0             -3739253.4      4986.4884    
    237000   300.30281     -3759165.8      0             -3739234        9760.3379    
    238000   299.794       -3759224.4      0             -3739326.3      6286.3771    
    239000   300.64263     -3758998.1      0             -3739043.7      1360.8058    
    240000   299.7883      -3759099.3      0             -3739201.7      3205.0828    
    241000   299.84183     -3759177.7      0             -3739276.5      8290.6803    
    242000   300.15117     -3759191.5      0             -3739269.7      8069.8358    
    243000   299.66558     -3759065        0             -3739175.5      3019.5193    
    244000   300.19383     -3758998.8      0             -3739074.3      1910.1279    
    245000   300.36959     -3759198.8      0             -3739262.5      6490.9906    
    246000   300.35663     -3759183.2      0             -3739247.8      9460.3896    
    247000   299.77987     -3759214.1      0             -3739317        5002.6818    
    248000   299.88041     -3758933.8      0             -3739030.1      782.82068    
    249000   299.7428      -3759215        0             -3739320.4      4455.6143    
    250000   300.41708     -3759146.9      0             -3739207.5      9465.3566    
    251000   299.37174     -3759238.2      0             -3739368.2      6838.8412    
    252000   299.83455     -3759057.6      0             -3739156.8      1780.9374    
    253000   300.04364     -3759084        0             -3739169.4      2660.0148    
    254000   300.18165     -3759172.2      0             -3739248.4      7849.2424    
    255000   300.22401     -3759175.2      0             -3739248.6      8397.0352    
    256000   300.08242     -3759159.7      0             -3739242.6      3577.9514    
    257000   300.1637      -3759005        0             -3739082.4      1471.873     
    258000   299.86713     -3759198.9      0             -3739296        5913.8863    
    259000   299.84761     -3759135.3      0             -3739233.7      9655.5729    
    260000   299.79003     -3759246.8      0             -3739349.1      5676.857     
    261000   299.80587     -3758971.9      0             -3739073.1      874.82186    
    262000   299.921       -3759186.9      0             -3739280.4      3982.6219    
    263000   300.04808     -3759179.3      0             -3739264.4      9124.4207    
    264000   300.15754     -3759165.8      0             -3739243.7      7464.2115    
    265000   299.68815     -3759041.6      0             -3739150.6      2349.37      
    266000   300.57782     -3759045.1      0             -3739095.1      2346.7248    
    267000   300.03938     -3759237.9      0             -3739323.6      7281.3615    
    268000   299.86709     -3759158.6      0             -3739255.7      8696.5467    
    269000   299.76141     -3759180.4      0             -3739284.5      4164.3644    
    270000   299.70782     -3758984.4      0             -3739092.1      1137.3112    
    271000   300.31346     -3759197        0             -3739264.5      5220.1088    
    272000   299.89636     -3759138.8      0             -3739233.9      9752.8668    
    273000   299.81282     -3759253.7      0             -3739354.4      6159.0467    
    274000   299.85513     -3758910.4      0             -3739008.3      1185.2044    
    275000   300.02271     -3759139        0             -3739225.7      3456.6794    
    276000   300.05551     -3759206.7      0             -3739291.3      8562.8161    
    277000   299.62715     -3759213        0             -3739326        7928.2464    
    278000   300.07553     -3759110.4      0             -3739193.7      2823.8467    
    279000   300.14012     -3759025.8      0             -3739104.8      2100.5838    
    280000   299.85444     -3759208.8      0             -3739306.8      6688.9749    
    281000   300.03753     -3759126.5      0             -3739212.3      9105.1091    
    282000   300.11237     -3759193.7      0             -3739274.6      4745.9194    
    283000   300.08077     -3758933.3      0             -3739016.2      955.83086    
    284000   300.30973     -3759180.8      0             -3739248.5      4634.9271    
    285000   299.4768      -3759159.2      0             -3739282.2      9577.8784    
    286000   300.01421     -3759211.7      0             -3739299.1      6648.5711    
    287000   300.43541     -3759053.3      0             -3739112.7      1523.5403    
    288000   299.94505     -3759090        0             -3739181.9      2917.945     
    289000   299.84671     -3759188.2      0             -3739286.7      8024.9322    
    290000   300.25846     -3759193.8      0             -3739264.9      8290.3855    
    291000   300.15531     -3759111.8      0             -3739189.8      3373.0617    
    292000   300.2655      -3758976.8      0             -3739047.5      1816.5982    
    293000   300.5437      -3759205.8      0             -3739258        6129.326     
    294000   300.11945     -3759185.4      0             -3739265.7      9374.7732    
    295000   299.91888     -3759205.4      0             -3739299        5404.4479    
    296000   300.68226     -3758959.2      0             -3739002.2      901.70791    
    297000   300.43671     -3759193.9      0             -3739253.2      4114.6223    
    298000   300.15329     -3759188.1      0             -3739266.2      9312.7268    
    299000   300.18487     -3759182        0             -3739258        7198.2099    
    300000   300.17078     -3759087        0             -3739163.9      2050.5995    
    301000   301.1113      -3759045        0             -3739059.5      2469.1156    
    302000   300.08678     -3759236.6      0             -3739319.1      7507.602     
    303000   299.7345      -3759209.2      0             -3739315.1      8516.7549    
    304000   300.57656     -3759156.6      0             -3739206.6      3979.7433    
    305000   300.38965     -3758962.1      0             -3739024.5      1469.8593    
    306000   300.08768     -3759198        0             -3739280.4      5506.9332    
    307000   299.7263      -3759186.6      0             -3739293.1      9593.5664    
    308000   300.23151     -3759219        0             -3739291.9      6014.471     
    309000   300.35635     -3758944.9      0             -3739009.5      1083.6425    
    310000   299.83717     -3759127.1      0             -3739226.2      3667.2699    
    311000   299.72014     -3759210.1      0             -3739317        8878.1129    
    312000   300.31618     -3759218.5      0             -3739285.8      7709.5506    
    313000   300.54462     -3759037.4      0             -3739089.6      2619.3661    
    314000   299.87445     -3759020.3      0             -3739117        2143.0975    
    315000   299.83933     -3759200.2      0             -3739299.1      6922.3137    
    316000   299.63311     -3759138.3      0             -3739251        8813.4078    
    317000   299.89049     -3759178.7      0             -3739274.2      4511.9573    
    318000   300.17999     -3758942.8      0             -3739019.1      1183.1486    
    319000   300.1504      -3759228.2      0             -3739306.5      4869.7964    
    320000   300.03763     -3759161.8      0             -3739247.6      9607.0311    
    321000   299.81153     -3759232.7      0             -3739333.5      6495.7738    
    322000   299.73801     -3759027        0             -3739132.7      1298.7242    
    323000   300.371       -3759124.1      0             -3739187.7      3165.1038    
    324000   299.27604     -3759210.7      0             -3739347.1      8296.333     
    325000   299.83309     -3759182.3      0             -3739281.6      8171.2661    
    326000   299.41621     -3759102        0             -3739229        3109.7283    
    327000   299.68886     -3759009.4      0             -3739118.4      1950.3907    
    328000   299.95013     -3759224.8      0             -3739316.4      6325.917     
    329000   299.90673     -3759135.9      0             -3739230.4      9087.5763    
    330000   300.11738     -3759209.7      0             -3739290.2      5115.3667    
    331000   300.36037     -3758943.4      0             -3739007.7      1025.374     
    332000   300.17071     -3759188.6      0             -3739265.5      4295.2393    
    333000   300.09282     -3759172.4      0             -3739254.6      9416.0407    
    334000   300.63464     -3759213.5      0             -3739259.7      6987.8833    
    335000   299.53461     -3759012.5      0             -3739131.7      1766.4858    
    336000   299.83637     -3759032.1      0             -3739131.3      2673.0428    
    337000   300.20032     -3759180.8      0             -3739255.8      7801.0768    
    338000   299.98842     -3759160.7      0             -3739249.7      8438.8622    
    339000   299.31654     -3759148        0             -3739281.6      3712.0636    
    340000   300.19811     -3758988        0             -3739063.1      1693.3589    
    341000   300.56847     -3759242.4      0             -3739293        5787.9384    
    342000   300.19        -3759146.2      0             -3739221.9      9354.3328    
    343000   300.56397     -3759231.4      0             -3739282.3      5765.8872    
    344000   300.03076     -3758911.8      0             -3738998        1059.5399    
    345000   300.09304     -3759166.1      0             -3739248.3      3800.7627    
    346000   299.46541     -3759178.7      0             -3739302.5      9119.3567    
    347000   300.26033     -3759232.3      0             -3739303.3      7468.9132    
    348000   299.74322     -3759032.7      0             -3739138.1      2309.4782    
    349000   299.98365     -3759043.3      0             -3739132.6      2264.6849    
    350000   300.38486     -3759210        0             -3739272.7      7205.9429    
    351000   300.30306     -3759169        0             -3739237.2      8663.6449    
    352000   299.72261     -3759161        0             -3739267.7      4280.9755    
    353000   299.72661     -3759008.2      0             -3739114.7      1448.3481    
    354000   299.62694     -3759248.9      0             -3739361.9      5139.4846    
    355000   299.56978     -3759146.3      0             -3739263.1      9465.2717    
    356000   299.97073     -3759285.5      0             -3739375.7      6306.7749    
    357000   299.9478      -3758980.7      0             -3739072.5      1202.7388    
    358000   299.9301      -3759122.2      0             -3739215.1      3361.5618    
    359000   299.84735     -3759223.9      0             -3739322.3      8601.8211    
    360000   299.42788     -3759223.7      0             -3739350        7957.2186    
    361000   299.81746     -3759075.1      0             -3739175.5      2830.258     
    362000   299.57512     -3759006.4      0             -3739122.9      2038.9638    
    363000   299.3755      -3759223        0             -3739352.7      6573.4558    
    364000   299.7215      -3759134.6      0             -3739241.4      8889.0605    
    365000   299.588       -3759197.3      0             -3739312.9      4818.0203    
    366000   299.95888     -3758985.1      0             -3739076.1      1211.8784    
    367000   299.85537     -3759153.7      0             -3739251.6      4510.6045    
    368000   299.87435     -3759199        0             -3739295.6      9421.5004    
    369000   299.67159     -3759244.5      0             -3739354.6      6821.4296    
    370000   299.54609     -3758996.9      0             -3739115.3      1505.2918    
    371000   299.87711     -3759129.3      0             -3739225.7      2865.063     
    372000   299.9887      -3759191.4      0             -3739280.4      8090.2688    
    373000   299.74027     -3759185.8      0             -3739291.4      8343.0469    
    374000   300.12638     -3759119.9      0             -3739199.8      3437.3688    
    375000   299.77769     -3758995.4      0             -3739098.4      1821.5856    
    376000   300.4518      -3759206.6      0             -3739264.9      6031.9427    
    377000   299.79247     -3759152        0             -3739254.1      9102.1194    
    378000   299.79456     -3759212        0             -3739313.9      5480.8551    
    379000   300.08416     -3758955.3      0             -3739038        1145.6574    
    380000   300.05519     -3759169.4      0             -3739254.1      3961.7513    
    381000   299.85781     -3759225.1      0             -3739322.8      9253.1896    
    382000   299.90166     -3759254.7      0             -3739349.5      7235.7177    
    383000   300.40226     -3759056.8      0             -3739118.4      1996.9699    
    384000   300.06787     -3759056.4      0             -3739140.2      2426.3907    
    385000   299.81113     -3759221.6      0             -3739322.4      7531.2615    
    386000   300.18058     -3759212.8      0             -3739289.1      8578.1723    
    387000   299.99067     -3759170.8      0             -3739259.7      4040.4404    
    388000   299.79289     -3758987.9      0             -3739089.9      1649.0794    
    389000   300.11285     -3759232.5      0             -3739313.3      5427.8461    
    390000   300.21324     -3759118.3      0             -3739192.4      9304.7246    
    391000   300.36356     -3759228.4      0             -3739292.6      6089.0078    
    392000   299.74506     -3758978.4      0             -3739083.6      1205.9549    
    393000   299.98303     -3759150.2      0             -3739239.6      3501.9706    
    394000   299.70686     -3759186.4      0             -3739294.1      8896.1099    
    395000   300.71234     -3759239.1      0             -3739280.1      7747.9542    
    396000   300.101       -3759064.4      0             -3739146        2521.3028    
    397000   300.06383     -3759024.8      0             -3739108.9      2119.8306    
    398000   299.81616     -3759225.7      0             -3739326.2      6893.073     
    399000   299.959       -3759170.7      0             -3739261.7      8775.7876    
    400000   300.29083     -3759179.3      0             -3739248.3      4586.1338    
    401000   299.70557     -3758964.9      0             -3739072.7      1466.9827    
    402000   299.76595     -3759153.4      0             -3739257.3      4833.6745    
    403000   299.66876     -3759186.5      0             -3739296.8      9333.7525    
    404000   300.2931      -3759200.2      0             -3739269        6659.0623    
    405000   299.27996     -3758969.4      0             -3739105.4      1400.0981    
    406000   299.76704     -3759119.4      0             -3739223.1      3097.5599    
    407000   299.62268     -3759182.3      0             -3739295.6      8394.4034    
    408000   300.26815     -3759201.2      0             -3739271.7      8188.666     
    409000   299.76077     -3759181.1      0             -3739285.3      3086.0129    
    410000   299.74987     -3759014.5      0             -3739119.4      1881.392     
    411000   299.88411     -3759252.5      0             -3739348.4      6273.596     
    412000   300.15526     -3759151.6      0             -3739229.6      8935.2895    
    413000   299.97778     -3759219.1      0             -3739308.8      5189.3626    
    414000   300.116       -3758980        0             -3739060.6      1323.3299    
    415000   299.72493     -3759164.5      0             -3739271.1      4193.8182    
    416000   300.41235     -3759151.7      0             -3739212.6      9274.2159    
    417000   299.70805     -3759196.8      0             -3739304.5      7099.1941    
    418000   299.72067     -3759004.3      0             -3739111.2      1751.7294    
    419000   299.89647     -3759088.2      0             -3739183.3      2618.0537    
    420000   299.96739     -3759235.1      0             -3739325.5      7837.5241    
    421000   300.02651     -3759194.8      0             -3739281.3      8499.2306    
    422000   299.89382     -3759198.5      0             -3739293.8      3728.0455    
    423000   300.38246     -3759033        0             -3739095.9      1749.1294    
    424000   299.93572     -3759210.2      0             -3739302.7      5704.0403    
    425000   299.59311     -3759136.7      0             -3739252        9104.0558    
    426000   300.11412     -3759226.5      0             -3739307.2      5789.3404    
    427000   300.00627     -3758958        0             -3739045.9      1296.7934    
    428000   300.15799     -3759123.8      0             -3739201.6      3680.5241    
    429000   299.81867     -3759169.5      0             -3739269.8      9051.0413    
    430000   300.0466      -3759210.5      0             -3739295.7      7568.3342    
    431000   300.31771     -3759043.1      0             -3739110.3      2255.2855    
    432000   300.25512     -3759087.2      0             -3739158.6      2217.1374    
    433000   300.08192     -3759151.5      0             -3739234.3      7234.2492    
    434000   299.40944     -3759157.7      0             -3739285.2      8741.9178    
    435000   300.27047     -3759185        0             -3739255.3      4324.3555    
    436000   299.99477     -3758952.6      0             -3739041.2      1636.4403    
    437000   300.03079     -3759167.6      0             -3739253.9      5097.6105    
    438000   300.55335     -3759209.5      0             -3739261        9180.7236    
    439000   299.95263     -3759224        0             -3739315.4      6454.453     
    440000   299.56782     -3758951.2      0             -3739068.2      1409.0239    
    441000   299.89863     -3759116        0             -3739211        3251.2422    
    442000   300.15379     -3759212.6      0             -3739290.7      8651.458     
    443000   300.18964     -3759220.5      0             -3739296.2      7990.4102    
    444000   299.27169     -3759114.2      0             -3739250.9      2766.6233    
    445000   299.78756     -3759018.7      0             -3739121.1      1931.6201    
    446000   299.71656     -3759209.9      0             -3739317        6577.5482    
    447000   299.98118     -3759172.6      0             -3739262.2      8826.71      
    448000   300.23015     -3759203.1      0             -3739276.1      4932.8027    
    449000   299.81712     -3759010.9      0             -3739111.4      1494.626     
    450000   299.5943      -3759180        0             -3739295.2      4447.0391    
    451000   300.73532     -3759151.8      0             -3739191.3      9182.088     
    452000   299.90613     -3759228.9      0             -3739323.4      6933.6547    
    453000   299.6758      -3759003.4      0             -3739113.3      1604.3406    
    454000   299.95673     -3759105.7      0             -3739196.8      2835.0494    
    455000   300.25211     -3759179.6      0             -3739251.1      8145.7221    
    456000   300.23635     -3759195.2      0             -3739267.8      8377.9489    
    457000   299.9109      -3759164.9      0             -3739259.1      3394.1555    
    458000   299.68534     -3758951        0             -3739060.2      1817.669     
    459000   300.44789     -3759232.8      0             -3739291.3      5970.4921    
    460000   299.89664     -3759119.9      0             -3739215.1      8922.8448    
    461000   299.2135      -3759223        0             -3739363.5      5530.1502    
    462000   299.77167     -3758917.9      0             -3739021.3      1451.6278    
    463000   300.22065     -3759180.2      0             -3739253.9      3883.5318    
    464000   299.78431     -3759157.4      0             -3739260        9066.4737    
    465000   300.09991     -3759247.9      0             -3739329.5      7355.6347    
    466000   299.86811     -3759060.2      0             -3739157.2      2016.929     
    467000   299.90497     -3759055.8      0             -3739150.4      2444.52      
    468000   299.89088     -3759214.4      0             -3739309.9      7549.8616    
    469000   299.86011     -3759214.5      0             -3739312        8656.5238    
    470000   299.37061     -3759177.5      0             -3739307.5      4009.389     
    471000   300.135       -3758991.3      0             -3739070.6      1733.3455    
    472000   299.66745     -3759249.8      0             -3739360.2      5343.843     
    473000   300.56965     -3759169.4      0             -3739219.9      9055.7476    
    474000   299.39812     -3759201.4      0             -3739329.6      6151.6379    
    475000   299.74134     -3758985.5      0             -3739090.9      1472.7887    
    476000   299.68739     -3759169.9      0             -3739278.9      3402.1242    
    477000   300.99765     -3759178.4      0             -3739200.4      8812.235     
    478000   299.96286     -3759189.7      0             -3739280.5      7799.86      
    479000   300.50178     -3759123.1      0             -3739178        2482.3942    
    480000   300.06417     -3759039.5      0             -3739123.5      2059.66      
    481000   300.02538     -3759229.3      0             -3739315.9      6902.401     
    482000   299.64044     -3759158.4      0             -3739270.6      8803.3816    
    483000   299.80646     -3759211.5      0             -3739312.6      4667.474     
    484000   299.95613     -3758989.8      0             -3739081        1623.7771    
    485000   300.69841     -3759175        0             -3739216.9      4779.0466    
    486000   300.32478     -3759159.4      0             -3739226.1      9058.1056    
    487000   300.02132     -3759199.3      0             -3739286.2      6734.1125    
    488000   299.82652     -3759023.4      0             -3739123.2      1584.0009    
    489000   299.12202     -3759092.3      0             -3739238.9      2980.2458    
    490000   299.89748     -3759206.9      0             -3739302        8353.5407    
    491000   300.13316     -3759230.2      0             -3739309.6      8175.1332    
    492000   300.1004      -3759118.7      0             -3739200.3      3092.7896    
    493000   300.35584     -3759054.4      0             -3739119        1817.4795    
    494000   299.84891     -3759219        0             -3739317.3      6266.2001    
    495000   299.97923     -3759135        0             -3739224.7      8860.287     
    496000   300.10509     -3759206        0             -3739287.3      5234.5165    
    497000   300.32309     -3759004.5      0             -3739071.3      1558.9739    
    498000   300.03281     -3759182.3      0             -3739268.4      4150.8019    
    499000   300.38364     -3759119.5      0             -3739182.3      9023.2927    
    500000   299.54688     -3759196.2      0             -3739314.6      7203.3858    
    501000   300.29714     -3759010.3      0             -3739078.9      1875.7119    
    502000   301.00315     -3759086.3      0             -3739108        2631.1614    
    503000   300.27681     -3759237.6      0             -3739307.5      7862.2358    
    504000   299.9753      -3759185.2      0             -3739275.1      8529.852     
    505000   300.04348     -3759168.5      0             -3739253.9      3697.1351    
    506000   300.07522     -3759025.7      0             -3739109        1714.8842    
    507000   299.29464     -3759211.8      0             -3739346.9      5633.5649    
    508000   299.20782     -3759146.4      0             -3739287.3      8932.7168    
    509000   299.43846     -3759270.8      0             -3739396.4      5806.3133    
    510000   300.60207     -3758992.7      0             -3739041        1592.8162    
    511000   299.41225     -3759150        0             -3739277.3      3627.7307    
    512000   299.98659     -3759157.8      0             -3739247        8882.2611    
    513000   299.96799     -3759213.8      0             -3739304.2      7607.5821    
    514000   299.97068     -3759027.2      0             -3739117.4      2263.315     
    515000   299.73662     -3759041.8      0             -3739147.5      2246.0017    
    516000   299.50586     -3759214.6      0             -3739335.6      7231.0808    
    517000   300.23023     -3759204.6      0             -3739277.6      8764.7607    
    518000   299.92607     -3759212.4      0             -3739305.6      4320.1821    
    519000   299.7076      -3759002.7      0             -3739110.4      1666.9483    
    520000   299.93682     -3759212.5      0             -3739304.9      5060.0724    
    521000   300.26338     -3759150.4      0             -3739221.2      8972.2447    
    522000   300.6916      -3759226.2      0             -3739268.6      6469.4622    
    523000   300.55541     -3758984.8      0             -3739036.2      1659.5068    
    524000   300.09659     -3759101.7      0             -3739183.5      3143.9195    
    525000   299.80415     -3759197.1      0             -3739298.4      8545.949     
    526000   299.9401      -3759153        0             -3739245.3      8002.3199    
    527000   299.85296     -3759105.7      0             -3739203.8      2800.6804    
    528000   300.10729     -3759000.4      0             -3739081.6      1943.4121    
    529000   299.81873     -3759205.4      0             -3739305.7      6612.7706    
    530000   300.70361     -3759167.4      0             -3739209        8848.6619    
    531000   300.15892     -3759176.3      0             -3739254.1      4970.6723    
    532000   300.28957     -3759003.2      0             -3739072.3      1635.0899    
    533000   300.33962     -3759170        0             -3739235.7      4448.7158    
    534000   299.53388     -3759129.3      0             -3739248.6      8919.0864    
    535000   299.85294     -3759224        0             -3739322        7000.4997    
    536000   299.22071     -3759011.3      0             -3739151.3      1804.293     
    537000   299.83445     -3759081.9      0             -3739181.1      2778.7921    
    538000   300.59409     -3759203.1      0             -3739252        8132.6335    
    539000   299.97766     -3759207.7      0             -3739297.4      8348.5433    
    540000   299.47073     -3759134.1      0             -3739257.6      3401.7151    
    541000   300.22202     -3758985.2      0             -3739058.7      1749.6316    
    542000   299.9315      -3759225.7      0             -3739318.5      5931.753     
    543000   299.92178     -3759145        0             -3739238.4      8888.6971    
    544000   300.16677     -3759232.4      0             -3739309.6      5544.4101    
    545000   299.99226     -3758969.6      0             -3739058.4      1672.5016    
    546000   299.76539     -3759197.3      0             -3739301.2      3850.8335    
    547000   299.33015     -3759220.3      0             -3739353        8810.1434    
    548000   299.78446     -3759196        0             -3739298.6      7469.5311    
    549000   299.87758     -3759075.6      0             -3739172        2101.8103    
    550000   300.87219     -3759077.2      0             -3739107.6      2439.9036    
    551000   299.49644     -3759218.4      0             -3739340.1      7557.7079    
    552000   300.50828     -3759233.2      0             -3739287.7      8637.5831    
    553000   300.08696     -3759143.9      0             -3739226.4      4006.8938    
    554000   299.70178     -3759018.3      0             -3739126.4      1677.1519    
    555000   299.72095     -3759262.1      0             -3739368.9      5337.347     
    556000   299.71395     -3759145.2      0             -3739252.5      8897.0659    
    557000   300.66783     -3759215.2      0             -3739259.2      6161.3463    
    558000   300.16843     -3758968.4      0             -3739045.5      1715.6379    
    559000   300.13443     -3759149.7      0             -3739229        3324.3786    
    560000   299.80788     -3759205.7      0             -3739306.7      8616.7287    
    561000   299.85932     -3759192.9      0             -3739290.5      7857.5658    
    562000   299.98812     -3759073.9      0             -3739163        2516.5839    
    563000   299.99635     -3759042.2      0             -3739130.8      2074.8658    
    564000   300.65189     -3759245.1      0             -3739290.1      6969.2052    
    565000   299.64291     -3759190.3      0             -3739302.3      8827.2017    
    566000   299.82301     -3759151.1      0             -3739251.1      4696.6862    
    567000   299.59996     -3759002.8      0             -3739117.6      1655.3451    
    568000   300.53605     -3759183.3      0             -3739236        4747.9429    
    569000   299.6669      -3759188.1      0             -3739298.5      8826.2972    
    570000   300.24361     -3759211.2      0             -3739283.4      6756.6334    
    571000   300.01455     -3759002.1      0             -3739089.4      1837.7338    
    572000   300.02801     -3759119.8      0             -3739206.2      2880.26      
    573000   300.20907     -3759203.4      0             -3739277.9      8298.702     
    574000   300.07695     -3759212.6      0             -3739295.8      8158.4491    
    575000   299.61666     -3759098.1      0             -3739211.8      3073.5398    
    576000   299.92642     -3758992.1      0             -3739085.3      1807.6837    
    577000   300.22477     -3759219.5      0             -3739292.9      6263.0824    
    578000   299.87132     -3759119.5      0             -3739216.3      8881.5456    
    579000   299.75983     -3759220.9      0             -3739325.1      5255.6714    
    580000   300.1573      -3758958.7      0             -3739036.6      1716.4395    
    581000   300.39179     -3759153.6      0             -3739215.8      4167.6815    
    582000   300.00758     -3759201.9      0             -3739289.7      8737.6456    
    583000   300.50107     -3759255.6      0             -3739310.6      7291.0558    
    584000   299.85346     -3759041.4      0             -3739139.4      2042.3562    
    585000   300.07525     -3759088.3      0             -3739171.6      2574.311     
    586000   300.05974     -3759192        0             -3739276.3      7825.3756    
    587000   300.06923     -3759170.6      0             -3739254.3      8537.7839    
    588000   300.36765     -3759171.1      0             -3739235        3653.9056    
    589000   299.67731     -3759008.9      0             -3739118.6      1715.1172    
    590000   299.58992     -3759202.7      0             -3739318.2      5638.4838    
    591000   299.86608     -3759197.3      0             -3739294.5      8887.6232    
    592000   300.27188     -3759256.6      0             -3739326.8      5853.7912    
    593000   299.79146     -3759036.1      0             -3739138.3      1770.546     
    594000   299.73079     -3759127        0             -3739233.1      3578.8216    
    595000   299.67029     -3759186        0             -3739296.2      8579.5345    
    596000   299.39263     -3759219.4      0             -3739348        7724.7184    
    597000   299.68506     -3759064.5      0             -3739173.7      2330.9261    
    598000   300.28056     -3759028.4      0             -3739098.1      2261.2437    
    599000   299.60561     -3759248.9      0             -3739363.4      7255.0997    
    600000   300.28914     -3759187.6      0             -3739256.7      8760.4565    
    601000   299.52532     -3759192.1      0             -3739311.9      4341.5207    
    602000   299.81075     -3758959.7      0             -3739060.6      1671.446     
    603000   300.56871     -3759170.4      0             -3739220.9      5045.2101    
    604000   300.18643     -3759125.6      0             -3739201.5      8841.2967    
    605000   300.14953     -3759223.5      0             -3739301.9      6454.5915    
    606000   300.51645     -3759042.5      0             -3739096.5      1891.5238    
    607000   299.62008     -3759069.7      0             -3739183.2      3060.7751    
    608000   299.62557     -3759170.4      0             -3739283.6      8398.766     
    609000   299.73103     -3759219.8      0             -3739325.9      8028.8674    
    610000   299.92298     -3759127.4      0             -3739220.8      2794.8198    
    611000   300.38225     -3759031        0             -3739093.9      1955.4277    
    612000   300.254       -3759223.3      0             -3739294.8      6608.6562    
    613000   300.00834     -3759164.7      0             -3739252.5      8844.9378    
    614000   300.56851     -3759230.7      0             -3739281.3      4980.0896    
    615000   300.50374     -3758945.7      0             -3739000.6      1717.5429    
    616000   300.09059     -3759219.6      0             -3739301.9      4433.4704    
    617000   300.19452     -3759105.5      0             -3739180.9      8723.3258    
    618000   299.53201     -3759236.7      0             -3739356        7035.227     
    619000   299.49599     -3759001.7      0             -3739123.5      2071.1552    
    620000   300.06838     -3759084.7      0             -3739168.4      2682.9298    
    621000   299.86864     -3759202.8      0             -3739299.8      7993.7932    
    622000   299.43039     -3759178.3      0             -3739304.4      8355.4583    
    623000   299.57928     -3759152.9      0             -3739269.1      3346.4298    
    624000   300.12614     -3759007.6      0             -3739087.5      1761.2854    
    625000   300.13544     -3759225.6      0             -3739304.9      5948.6978    
    626000   300.09898     -3759167.6      0             -3739249.4      8894.8401    
    627000   300.09522     -3759211.3      0             -3739293.3      5590.9102    
    628000   299.77162     -3758965.6      0             -3739069        1795.3883    
    629000   300.19643     -3759164.9      0             -3739240.2      3868.7767    
    630000   300.49773     -3759151        0             -3739206.3      8574.9447    
    631000   300.40108     -3759216.6      0             -3739278.2      7568.0442    
    632000   299.53018     -3759011.9      0             -3739131.3      2275.4189    
    633000   299.40668     -3759066        0             -3739193.6      2401.0033    
    634000   299.97752     -3759219.4      0             -3739309.2      7539.0973    
    635000   299.79743     -3759169.3      0             -3739271        8655.1842    
    636000   300.18327     -3759190.8      0             -3739266.9      4001.2488    
    637000   299.45672     -3758997.4      0             -3739121.7      1680.8944    
    638000   299.66269     -3759224.1      0             -3739334.8      5327.366     
    639000   299.76551     -3759169.9      0             -3739273.8      8813.7834    
    640000   300.30697     -3759221.2      0             -3739289.1      6156.5949    
    641000   299.91027     -3759011.5      0             -3739105.7      1878.8447    
    642000   300.17062     -3759105.7      0             -3739182.7      3290.1167    
    643000   299.91379     -3759179.3      0             -3739273.3      8372.524     
    644000   299.88896     -3759200.7      0             -3739296.3      7895.5695    
    645000   299.92964     -3759088.6      0             -3739181.5      2634.7143    
    646000   299.31134     -3759003.6      0             -3739137.5      2111.1292    
    647000   300.09945     -3759207.7      0             -3739289.4      6969.4198    
    648000   299.78742     -3759192.5      0             -3739294.9      8803.8172    
    649000   299.6765      -3759203.3      0             -3739313.1      4628.3643    
    650000   300.39716     -3758989.8      0             -3739051.7      1693.1387    
    651000   299.8261      -3759196.9      0             -3739296.8      4744.9713    
    652000   299.76536     -3759151.9      0             -3739255.8      8760.1279    
    653000   300.58989     -3759202.2      0             -3739251.3      6744.3977    
    654000   300.03312     -3759014.3      0             -3739100.4      2091.244     
    655000   300.26755     -3759132.7      0             -3739203.2      2858.6784    
    656000   299.94552     -3759206.9      0             -3739298.9      8115.7924    
    657000   299.52036     -3759182.6      0             -3739302.8      8179.0062    
    658000   300.25757     -3759145.2      0             -3739216.4      3085.7335    
    659000   300.23732     -3758991.1      0             -3739063.6      1861.8091    
    660000   299.88721     -3759242.4      0             -3739338.2      6312.472     
    661000   300.0422      -3759191.7      0             -3739277.2      8869.8811    
    662000   300.17908     -3759183.3      0             -3739259.7      5267.8961    
    663000   299.61805     -3759029.7      0             -3739143.4      1741.5674    
    664000   299.94058     -3759173.6      0             -3739265.8      4169.814     
    665000   299.49922     -3759183.1      0             -3739304.6      8552.4171    
    666000   300.59574     -3759204.6      0             -3739253.3      7303.7317    
    667000   299.59972     -3758996.4      0             -3739111.3      2276.046     
    668000   299.8274      -3759090.3      0             -3739190        2519.5877    
    669000   299.95407     -3759225.1      0             -3739316.5      7696.1573    
    670000   300.02439     -3759206.8      0             -3739293.5      8476.4752    
    671000   299.76351     -3759137.8      0             -3739241.7      3639.4087    
    672000   299.97412     -3758977.8      0             -3739067.8      1735.4024    
    673000   299.68853     -3759186        0             -3739295        5673.2901    
    674000   300.18553     -3759158.9      0             -3739234.8      8851.763     
    675000   300.00701     -3759218        0             -3739305.8      5878.4875    
    676000   300.05323     -3758985.7      0             -3739070.4      1881.1564    
    677000   300.54547     -3759118.9      0             -3739171        3645.5543    
    678000   300.04635     -3759179.3      0             -3739264.5      8375.774     
    679000   299.64113     -3759190.3      0             -3739302.4      7750.2506    
    680000   299.38808     -3759058.1      0             -3739187        2547.1596    
    681000   299.55651     -3759044.6      0             -3739162.3      2260.582     
    682000   300.10693     -3759199        0             -3739280.2      7262.1755    
    683000   299.18773     -3759202.4      0             -3739344.6      8697.896     
    684000   299.98103     -3759188.9      0             -3739278.5      4285.2175    
    685000   300.18003     -3758997.6      0             -3739073.9      1691.5539    
    686000   299.89853     -3759197.5      0             -3739292.5      5057.278     
    687000   299.8692      -3759154.3      0             -3739251.3      8812.4172    
    688000   300.50467     -3759220.2      0             -3739275        6407.0915    
    689000   300.21932     -3759030.8      0             -3739104.5      2052.1315    
    690000   299.95428     -3759160.8      0             -3739252.1      3079.6435    
    691000   300.77427     -3759204.1      0             -3739241        8160.2658    
    692000   299.9599      -3759192.1      0             -3739283        8071.128     
    693000   299.99303     -3759115.2      0             -3739203.9      2904.7452    
    694000   300.58081     -3758979.3      0             -3739029        2014.3387    
    695000   300.04633     -3759221.4      0             -3739306.6      6688.1034    
    696000   299.42144     -3759155.6      0             -3739282.3      8827.5672    
    697000   300.16535     -3759237.4      0             -3739314.7      4911.5222    
    698000   300.3717      -3758971.4      0             -3739035        1728.1621    
    699000   299.53097     -3759178.7      0             -3739298.1      4487.4174    
    700000   299.46919     -3759134        0             -3739257.6      8636.6251    
    701000   300.29869     -3759249.7      0             -3739318.1      6945.1395    
    702000   300.24708     -3759073.7      0             -3739145.6      2266.145     
    703000   300.04966     -3759116.7      0             -3739201.6      2679.3062    
    704000   299.81243     -3759213.8      0             -3739314.6      7847.5497    
    705000   300.6323      -3759190.6      0             -3739236.9      8349.2771    
    706000   299.80347     -3759108.8      0             -3739210.1      3354.7775    
    707000   300.16941     -3758993.3      0             -3739070.4      1816.5365    
    708000   300.32142     -3759185.6      0             -3739252.6      6060.1821    
    709000   299.93598     -3759165.7      0             -3739258.2      8848.906     
    710000   300.24369     -3759217.5      0             -3739289.6      5523.0158    
    711000   300.26358     -3759032.9      0             -3739103.7      1788.9947    
    712000   299.11388     -3759131.4      0             -3739278.5      3947.7264    
    713000   299.78012     -3759165.6      0             -3739268.5      8410.4472    
    714000   300.3474      -3759176.7      0             -3739241.9      7504.2444    
    715000   300.37493     -3759052.6      0             -3739116        2501.139     
    716000   300.00107     -3759069.9      0             -3739158.1      2383.2402    
    717000   300.86744     -3759180.4      0             -3739211.1      7483.893     
    718000   300.13493     -3759157.6      0             -3739236.9      8588.076     
    719000   300.84331     -3759166.6      0             -3739198.9      3938.7458    
    720000   300.28986     -3759013.8      0             -3739082.8      1696.2308    
    721000   300.11469     -3759187.5      0             -3739268.1      5410.6055    
    722000   299.7593      -3759138        0             -3739242.3      8848.3156    
    723000   299.97741     -3759216.6      0             -3739306.4      6088.2277    
    724000   300.56601     -3759016.6      0             -3739067.4      1999.8419    
    725000   300.17488     -3759104.6      0             -3739181.3      3403.4555    
    726000   299.77762     -3759172.2      0             -3739275.3      8179.3635    
    727000   299.72601     -3759193        0             -3739299.5      7927.1726    
    728000   300.52988     -3759071.7      0             -3739124.8      2812.8324    
    729000   299.91769     -3759032.6      0             -3739126.3      2142.4988    
    730000   299.76598     -3759208.1      0             -3739311.9      6986.9846    
    731000   300.51996     -3759162.3      0             -3739216.1      8774.9656    
    732000   299.82013     -3759186.1      0             -3739286.3      4544.988     
    733000   299.81873     -3758949        0             -3739049.3      1710.7535    
    734000   299.9812      -3759211.5      0             -3739301        4794.7834    
    735000   299.90549     -3759188.5      0             -3739283.1      8718.3765    
    736000   299.9392      -3759234.2      0             -3739326.5      6656.0824    
    737000   300.12214     -3759036.6      0             -3739116.8      2218.1439    
    738000   299.84547     -3759041.8      0             -3739140.3      2894.2132    
    739000   299.69524     -3759200.2      0             -3739308.7      7899.2005    
    740000   300.05962     -3759200.5      0             -3739284.9      8241.2072    
    741000   299.60663     -3759120        0             -3739234.4      3161.7987    
    742000   301.13716     -3759023.7      0             -3739036.5      1904.2832    
    743000   299.93679     -3759205.4      0             -3739297.9      6373.8873    
    744000   300.05042     -3759128.6      0             -3739213.6      8846.1084    
    745000   300.36695     -3759182.9      0             -3739246.8      5172.823     
    746000   300.39472     -3758983.3      0             -3739045.4      1759.0855    
    747000   299.33594     -3759133.7      0             -3739266.1      4211.5248    
    748000   299.6483      -3759153        0             -3739264.6      8484.4022    
    749000   300.34129     -3759192        0             -3739257.6      7238.1201    
    750000   299.96744     -3759046.3      0             -3739136.7      2441.9544    
    751000   300.25957     -3759019.8      0             -3739090.9      2542.9866    
    752000   299.43023     -3759197        0             -3739323.1      7560.1222    
    753000   300.01904     -3759185.4      0             -3739272.4      8461.0146    
    754000   300.44255     -3759122.7      0             -3739181.6      3666.9627    
    755000   300.54568     -3759028.3      0             -3739080.4      1755.5176    
    756000   299.74796     -3759188.8      0             -3739293.9      5757.5649    
    757000   299.84685     -3759178        0             -3739276.5      8851.6289    
    758000   300.24908     -3759227.1      0             -3739298.8      5794.7412    
    759000   300.052       -3758981.9      0             -3739066.7      1895.9       
    760000   299.93582     -3759133.6      0             -3739226.1      3692.2203    
    761000   300.10376     -3759184.3      0             -3739265.7      8238.0007    
    762000   299.81226     -3759225.1      0             -3739325.8      7705.846     
    763000   300.27826     -3759089.5      0             -3739159.3      2725.3195    
    764000   299.94273     -3759048.5      0             -3739140.6      2227.34      
    765000   299.99705     -3759184.3      0             -3739272.8      7205.406     
    766000   299.80023     -3759162.2      0             -3739263.7      8701.3755    
    767000   299.86019     -3759146.2      0             -3739243.8      4220.1806    
    768000   300.09732     -3759000.5      0             -3739082.3      1703.4107    
    769000   300.07225     -3759159.1      0             -3739242.6      5155.1455    
    770000   299.74319     -3759135.3      0             -3739240.6      8795.5363    
    771000   299.79681     -3759222.9      0             -3739324.6      6351.2666    
    772000   300.06746     -3758981.3      0             -3739065.1      2133.9318    
    773000   300.23808     -3759150.4      0             -3739222.9      3133.2672    
    774000   299.71647     -3759206.2      0             -3739313.3      7973.1745    
    775000   299.99965     -3759136.1      0             -3739224.4      8098.6994    
    776000   299.93206     -3759118.4      0             -3739211.2      3057.5302    
    777000   300.0808      -3759006.1      0             -3739089        2026.4423    
    778000   299.98521     -3759231.5      0             -3739320.8      6693.6529    
    779000   300.11229     -3759153.4      0             -3739234.2      8813.004     
    780000   300.08507     -3759182.1      0             -3739264.7      4801.8302    
    781000   300.30721     -3758989        0             -3739056.9      1736.3931    
    782000   299.65728     -3759184.6      0             -3739295.6      4535.5937    
    783000   300.47503     -3759161.5      0             -3739218.2      8608.9353    
    784000   299.22788     -3759196.1      0             -3739335.6      6898.0931    
    785000   300.35858     -3759031.8      0             -3739096.3      2387.8755    
    786000   300.85593     -3759125.1      0             -3739156.5      2706.6313    
    787000   300.41758     -3759170.2      0             -3739230.7      7686.695     
    788000   299.84249     -3759189.6      0             -3739288.3      8349.2011    
    789000   300.40255     -3759107.9      0             -3739169.5      3441.6046    
    790000   299.74782     -3759003.6      0             -3739108.7      1819.5573    
    791000   299.28155     -3759213.5      0             -3739349.5      6121.7124    
    792000   300.25439     -3759182.8      0             -3739254.2      8855.4361    
    793000   300.41737     -3759216.6      0             -3739277.2      5468.7255    
[...]
   2885000   299.83386     -3759128.4      0             -3739227.7      5092.897     
   2886000   300.1457      -3759055.8      0             -3739134.5      2971.3653    
   2887000   300.10147     -3759105.5      0             -3739187.1      4809.1904    
   2888000   300.3638      -3759169.8      0             -3739233.9      7464.4508    
   2889000   300.64152     -3759176.1      0             -3739221.8      6313.9526    
   2890000   300.13256     -3759083.9      0             -3739163.4      3369.2544    
   2891000   299.9666      -3759093.3      0             -3739183.8      3696.102     
   2892000   299.89833     -3759176.7      0             -3739271.8      6758.2283    
   2893000   300.16206     -3759185.6      0             -3739263.2      7193.7526    
   2894000   300.10289     -3759124.6      0             -3739206.1      4219.8271    
   2895000   299.89303     -3759087.9      0             -3739183.3      3100.579     
   2896000   300.10752     -3759145.6      0             -3739226.8      5718.4979    
   2897000   300.42878     -3759158.1      0             -3739217.9      7578.7464    
   2898000   299.86525     -3759134.5      0             -3739231.7      5449.8048    
   2899000   300.08117     -3759049.9      0             -3739132.8      3023.3602    
   2900000   300.44513     -3759130        0             -3739188.7      4484.2254    
   2901000   299.51836     -3759202.6      0             -3739322.9      7288.3599    
   2902000   300.09099     -3759168.5      0             -3739250.8      6554.2017    
   2903000   300.50267     -3759101.1      0             -3739156.1      3572.1445    
   2904000   299.84669     -3759054.8      0             -3739153.3      3489.8052    
   2905000   300.91577     -3759192.1      0             -3739219.6      6532.0999    
   2906000   300.302       -3759108.5      0             -3739176.8      7369.7534    
   2907000   300.12201     -3759155.7      0             -3739235.9      4521.5305    
   2908000   299.76325     -3759067.6      0             -3739171.6      2989.6403    
   2909000   299.9667      -3759163.1      0             -3739253.6      5374.8264    
   2910000   299.42884     -3759162.8      0             -3739289        7535.9039    
   2911000   299.84378     -3759185.9      0             -3739284.6      5737.9877    
   2912000   300.18771     -3759052.5      0             -3739128.3      3133.0446    
   2913000   299.72208     -3759146        0             -3739252.7      4190.8431    
   2914000   299.67122     -3759186.5      0             -3739296.6      7128.7766    
   2915000   299.82291     -3759157.9      0             -3739257.9      6869.2717    
   2916000   300.75179     -3759087.2      0             -3739125.6      3800.3152    
   2917000   300.27782     -3759078.2      0             -3739148.1      3290.5167    
   2918000   300.21455     -3759163.9      0             -3739237.9      6252.0017    
   2919000   299.40343     -3759146.7      0             -3739274.6      7468.2242    
   2920000   300.18951     -3759155.3      0             -3739231        4811.8933    
   2921000   299.61522     -3759087.9      0             -3739201.7      2985.9751    
   2922000   299.9016      -3759141.9      0             -3739236.7      5041.8418    
   2923000   299.92457     -3759188.9      0             -3739282.2      7503.4196    
   2924000   299.72268     -3759195.8      0             -3739302.5      6070.3906    
   2925000   299.9074      -3759048.9      0             -3739143.4      3268.0858    
   2926000   299.71003     -3759128.6      0             -3739236.2      3889.9577    
   2927000   300.22633     -3759189.5      0             -3739262.8      6922.881     
   2928000   299.73078     -3759176.4      0             -3739282.6      7081.1755    
   2929000   300.1639      -3759098.7      0             -3739176.1      4044.3483    
   2930000   299.86209     -3759033.7      0             -3739131.2      3206.4569    
   2931000   300.30551     -3759198        0             -3739266        5958.7666    
   2932000   299.87057     -3759172.3      0             -3739269.2      7542.3975    
   2933000   300.12194     -3759179.9      0             -3739260.1      5187.1232    
   2934000   299.67516     -3759070        0             -3739179.8      3009.8962    
   2935000   299.96486     -3759184.7      0             -3739275.3      4710.7307    
   2936000   299.47436     -3759181.5      0             -3739304.7      7379.5948    
   2937000   300.37682     -3759139.6      0             -3739202.9      6365.5806    
   2938000   300.14008     -3759080.3      0             -3739159.3      3426.7297    
   2939000   299.66939     -3759134.5      0             -3739244.7      3630.2033    
   2940000   300.43543     -3759213.8      0             -3739273.2      6708.2631    
   2941000   300.08034     -3759164.8      0             -3739247.7      7262.803     
   2942000   299.99625     -3759104.6      0             -3739193.1      4326.6935    
   2943000   300.49482     -3758998.1      0             -3739053.5      3085.049     
   2944000   300.21847     -3759175.1      0             -3739248.9      5623.2782    
   2945000   299.88465     -3759165.4      0             -3739261.4      7540.1873    
   2946000   300.48457     -3759192.8      0             -3739248.9      5490.614     
   2947000   300.38084     -3759099.2      0             -3739162.2      3057.8018    
   2948000   300.05126     -3759161.7      0             -3739246.6      4423.732     
   2949000   299.57848     -3759191.8      0             -3739308.1      7248.5438    
   2950000   299.23548     -3759211.7      0             -3739350.7      6636.8575    
   2951000   299.29203     -3759081.3      0             -3739216.6      3635.4337    
   2952000   300.35036     -3759095.3      0             -3739160.3      3431.4387    
   2953000   300.24613     -3759145.3      0             -3739217.2      6425.6946    
   2954000   300.90339     -3759159.9      0             -3739188.2      7371.4406    
   2955000   299.77762     -3759156.6      0             -3739259.7      4560.1382    
   2956000   300.69659     -3759071.9      0             -3739114        2985.2053    
   2957000   299.75401     -3759127.4      0             -3739232        5326.9099    
   2958000   300.57213     -3759154.7      0             -3739205        7572.3098    
   2959000   300.10029     -3759173.1      0             -3739254.7      5829.8994    
   2960000   300.08983     -3759089        0             -3739171.3      3159.3463    
   2961000   299.97979     -3759092.4      0             -3739182        4127.5793    
   2962000   300.29145     -3759194.2      0             -3739263.2      7056.2919    
   2963000   300.23238     -3759153.6      0             -3739226.5      6925.6053    
   2964000   300.17992     -3759114        0             -3739190.4      3862.3031    
   2965000   299.7446      -3759068.9      0             -3739174.2      3280.3831    
   2966000   300.51798     -3759184.8      0             -3739238.7      6172.0196    
   2967000   299.2135      -3759213.5      0             -3739354        7484.7882    
   2968000   299.33158     -3759178.9      0             -3739311.5      4913.395     
   2969000   300.61127     -3759085.4      0             -3739133.1      3012.713     
   2970000   299.89999     -3759137.6      0             -3739232.5      4963.5824    
   2971000   300.15182     -3759179.4      0             -3739257.6      7433.7226    
   2972000   299.78275     -3759168.6      0             -3739271.3      6149.1595    
   2973000   300.3591      -3759124.3      0             -3739188.8      3322.8006    
   2974000   299.75643     -3759113.9      0             -3739218.4      3859.9785    
   2975000   300.50462     -3759186.2      0             -3739241        6867.4437    
   2976000   299.45819     -3759211.4      0             -3739335.7      7110.4481    
   2977000   299.73155     -3759131.9      0             -3739238        4130.6426    
   2978000   300.67438     -3759060.3      0             -3739103.8      3163.5108    
   2979000   300.38994     -3759169.8      0             -3739232.2      5859.8907    
   2980000   300.08231     -3759185.1      0             -3739268        7506.1049    
   2981000   300.48322     -3759153        0             -3739209.3      5277.8513    
   2982000   300.5809      -3759056        0             -3739105.7      3042.6636    
   2983000   299.85629     -3759145.9      0             -3739243.8      4637.638     
   2984000   299.59833     -3759205.8      0             -3739320.8      7330.3002    
   2985000   300.30083     -3759179.7      0             -3739248        6413.3424    
   2986000   300.04564     -3759088.4      0             -3739173.7      3511.0863    
   2987000   300.59446     -3759121.4      0             -3739170.3      3568.2997    
   2988000   299.43446     -3759163.4      0             -3739289.3      6588.7639    
   2989000   300.03076     -3759165.7      0             -3739252        7274.4385    
   2990000   300.20267     -3759141.5      0             -3739216.3      4382.9985    
   2991000   299.85348     -3759066.6      0             -3739164.6      3064.2212    
   2992000   300.49133     -3759181        0             -3739236.7      5518.5193    
   2993000   299.77298     -3759171        0             -3739274.4      7546.9529    
   2994000   299.88684     -3759170.6      0             -3739266.4      5605.5317    
   2995000   300.55456     -3759078.9      0             -3739130.4      3101.4699    
   2996000   299.6571      -3759131        0             -3739242.1      4341.8534    
   2997000   300.00129     -3759143.2      0             -3739231.4      7165.0408    
   2998000   299.76709     -3759153.5      0             -3739257.3      6722.7449    
   2999000   299.52286     -3759088.5      0             -3739208.4      3710.8548    
   3000000   299.8884      -3759075.8      0             -3739171.5      3405.3534    
   3001000   299.50756     -3759150.8      0             -3739271.8      6357.4417    
   3002000   299.77162     -3759167.4      0             -3739270.8      7429.0768    
   3003000   299.62651     -3759170        0             -3739283.1      4690.4627    
   3004000   300.29368     -3759052.7      0             -3739121.5      3030.4881    
   3005000   300.17426     -3759134.9      0             -3739211.6      5172.4258    
   3006000   300.61791     -3759191.3      0             -3739238.6      7474.8083    
   3007000   299.83341     -3759159.9      0             -3739259.3      5934.0147    
   3008000   300.28802     -3759079.5      0             -3739148.7      3219.4905    
   3009000   300.518       -3759141        0             -3739194.9      4065.7406    
   3010000   300.56664     -3759208        0             -3739258.7      6985.2175    
   3011000   299.42811     -3759189        0             -3739315.3      6953.0106    
   3012000   300.62115     -3759112.7      0             -3739159.8      3978.225     
   3013000   300.18854     -3759146.1      0             -3739221.9      3222.5814    
   3014000   300.29885     -3759178.2      0             -3739246.7      6077.4228    
   3015000   299.94775     -3759134.8      0             -3739226.5      7471.6919    
   3016000   300.09532     -3759169.5      0             -3739251.4      5033.0949    
   3017000   300.08231     -3759037        0             -3739119.8      3028.2344    
   3018000   299.49102     -3759147.2      0             -3739269.2      4868.8869    
   3019000   300.21283     -3759140.9      0             -3739215.1      7449.3695    
   3020000   300.55463     -3759171.6      0             -3739223        6212.018     
   3021000   299.59478     -3759092.4      0             -3739207.5      3424.1219    
   3022000   300.00205     -3759142.7      0             -3739230.9      3761.3988    
   3023000   300.33539     -3759171.7      0             -3739237.8      6760.5358    
   3024000   299.08044     -3759200.9      0             -3739350.2      7107.161     
   3025000   300.06247     -3759134        0             -3739218.1      4200.1169    
   3026000   299.55447     -3759093.1      0             -3739211        3122.9013    
   3027000   299.54591     -3759142.9      0             -3739261.3      5768.8279    
   3028000   300.18954     -3759139.6      0             -3739215.3      7531.0745    
   3029000   300.11912     -3759167.6      0             -3739248        5365.4889    
   3030000   299.92514     -3759049.3      0             -3739142.5      3052.4376    
   3031000   300.02536     -3759125.4      0             -3739212        4533.7706    
   3032000   299.91692     -3759181.8      0             -3739275.6      7254.1262    
   3033000   299.90161     -3759160.6      0             -3739255.4      6479.0456    
   3034000   300.28862     -3759121.2      0             -3739190.3      3590.9665    
   3035000   299.43342     -3759091.2      0             -3739217.1      3548.9353    
   3036000   299.79748     -3759162.5      0             -3739264.2      6495.7163    
   3037000   299.41188     -3759152.7      0             -3739280        7317.3075    
   3038000   299.32899     -3759142.6      0             -3739275.4      4477.0323    
   3039000   300.17149     -3759038.6      0             -3739115.5      3096.7301    
   3040000   300.03914     -3759197.5      0             -3739283.2      5408.6875    
   3041000   299.15954     -3759165.3      0             -3739309.4      7520.7508    
   3042000   300.10916     -3759166.1      0             -3739247.1      5718.3992    
   3043000   299.98378     -3759045.6      0             -3739135        3147.2145    
   3044000   299.74069     -3759108.9      0             -3739214.4      4269.6942    
   3045000   300.34355     -3759192.2      0             -3739257.7      7081.2246    
   3046000   299.84596     -3759170.9      0             -3739269.4      6768.6666    
   3047000   299.64971     -3759105.8      0             -3739217.4      3817.8941    
   3048000   299.84547     -3759075.9      0             -3739174.4      3359.7702    
   3049000   299.97138     -3759174.1      0             -3739264.3      6237.6571    
   3050000   299.66152     -3759167.7      0             -3739278.4      7389.212     
   3051000   300.37757     -3759172.9      0             -3739236.2      4787.6132    
   3052000   299.57553     -3759050.2      0             -3739166.6      3029.9317    
   3053000   300.19295     -3759144.6      0             -3739220.1      5091.592     
   3054000   299.953       -3759176.3      0             -3739267.7      7464.5196    
   3055000   299.6187      -3759146.3      0             -3739259.9      6022.6659    
   3056000   299.8795      -3759067.2      0             -3739163.5      3323.3716    
   3057000   300.41496     -3759087.7      0             -3739148.4      3990.7263    
   3058000   300.25706     -3759225.2      0             -3739296.4      6868.245     
   3059000   299.9354      -3759159.6      0             -3739252.2      7007.0867    
   3060000   300.11737     -3759106.4      0             -3739186.9      4085.0899    
   3061000   300.55125     -3759033.9      0             -3739085.6      3230.6314    
   3062000   299.67933     -3759202.1      0             -3739311.7      5972.3776    
   3063000   300.31646     -3759169.1      0             -3739236.4      7460.3404    
   3064000   300.44897     -3759159.8      0             -3739218.3      5129.8352    
   3065000   299.95389     -3759056.1      0             -3739147.5      3076.2426    
   3066000   299.13767     -3759180.4      0             -3739326        4728.5357    
   3067000   300.09792     -3759141.7      0             -3739223.5      7378.0106    
   3068000   300.20318     -3759162.8      0             -3739237.6      6289.161     
   3069000   299.65916     -3759075        0             -3739185.9      3481.7735    
   3070000   300.0525      -3759110.1      0             -3739194.9      3710.192     
   3071000   300.07031     -3759152.5      0             -3739236.1      6662.6956    
   3072000   300.1687      -3759186        0             -3739263.1      7193.6566    
   3073000   300.62257     -3759113.8      0             -3739160.8      4298.7804    
   3074000   300.16175     -3759067        0             -3739144.6      3151.4588    
   3075000   299.92341     -3759170.5      0             -3739263.9      5652.1275    
   3076000   300.00804     -3759233.9      0             -3739321.7      7462.7703    
   3077000   300.20702     -3759171.4      0             -3739246        5449.1149    
   3078000   300.90439     -3759092.1      0             -3739120.4      3093.2014    
   3079000   300.27284     -3759111.6      0             -3739181.8      4458.1676    
   3080000   299.79253     -3759184.4      0             -3739286.5      7212.03      
   3081000   299.7916      -3759174.6      0             -3739276.7      6578.8131    
   3082000   299.63708     -3759077.4      0             -3739189.7      3686.9047    
   3083000   299.69687     -3759076.1      0             -3739184.5      3518.7839    
   3084000   300.13132     -3759212.9      0             -3739292.5      6387.9661    
   3085000   299.70805     -3759139        0             -3739246.7      7326.1986    
   3086000   299.53473     -3759104.4      0             -3739223.6      4590.6048    
   3087000   300.69413     -3759010        0             -3739052.2      3103.9194    
   3088000   300.02945     -3759155.9      0             -3739242.2      5350.6246    
   3089000   300.00899     -3759175.4      0             -3739263.1      7470.0258    
   3090000   299.755       -3759194        0             -3739298.5      5775.6062    
   3091000   299.89745     -3759084.7      0             -3739179.8      3218.5973    
   3092000   299.66463     -3759117.3      0             -3739227.9      4198.172     
   3093000   300.65016     -3759162.8      0             -3739207.9      7003.2197    
   3094000   299.41289     -3759200.5      0             -3739327.8      6804.1094    
   3095000   299.7678      -3759067.8      0             -3739171.5      3937.1169    
   3096000   300.0743      -3759059        0             -3739142.4      3349.829     
   3097000   300.2115      -3759174.1      0             -3739248.3      6146.5692    
   3098000   299.69126     -3759134.7      0             -3739243.4      7413.6221    
   3099000   299.04443     -3759169.9      0             -3739321.6      4884.8973    
   3100000   300.50891     -3759041.4      0             -3739095.9      3084.4757    
Loop time of 88259.2 on 2048 procs for 3000000 steps with 513480 atoms

Performance: 2.937 ns/day, 8.172 hours/ns, 33.991 timesteps/s, 17.454 Matom-step/s
99.5% CPU use with 64 MPI tasks x 32 OpenMP threads

MPI task timing breakdown:
Section |  min time  |  avg time  |  max time  |%varavg| %total
---------------------------------------------------------------
Pair    | 2.4437     | 30699      | 77621      |20428.3 | 34.78
Neigh   | 0.0031954  | 11.456     | 29.572     | 405.9 |  0.01
Comm    | 1.5633     | 12491      | 68840      |19490.6 | 14.15
Output  | 3.4095     | 9.8343     | 16.492     | 124.4 |  0.01
Modify  | 724.8      | 44706      | 87809      |20386.3 | 50.65
Other   |            | 341.7      |            |       |  0.39

Nlocal:        8023.12 ave       20089 max           0 min
Histogram: 32 0 8 0 0 0 0 0 0 24
Nghost:          26613 ave       64183 max           0 min
Histogram: 32 0 0 8 0 0 0 0 0 24
Neighs:              0 ave           0 max           0 min
Histogram: 64 0 0 0 0 0 0 0 0 0

Total # of neighbors = 0
Ave neighs/atom = 0
Neighbor list builds = 122
Dangerous builds = 0
Total wall time: 25:20:59
