LAMMPS (7 Feb 2024 - Development - patch_7Feb2024_update1-147-g4d89741d8c)
  using 32 OpenMP thread(s) per MPI task
# Initialization
units       metal
dimension   3
boundary    p p p     # Periodic in x, y and free in z direction
atom_style  atomic

# User variables
variable annealtemp equal 700
variable strikeangle equal 15
variable strikespeed equal 3606.17656613

# Computed variables
variable posx equal 42.885349000000005+(5*cos((90-${strikeangle}))*PI/180)
variable posx equal 42.885349000000005+(5*cos((90-15))*PI/180)
variable posz equal 710+(5*sin((90-${strikeangle})*PI/180))
variable posz equal 710+(5*sin((90-15)*PI/180))
variable posy equal 34.3068485
variable velx equal ${strikespeed}*cos((90-${strikeangle})*PI/180)
variable velx equal 3606.17656613*cos((90-${strikeangle})*PI/180)
variable velx equal 3606.17656613*cos((90-15)*PI/180)
variable velz equal ${strikespeed}*sin((90-${strikeangle})*PI/180)
variable velz equal 3606.17656613*sin((90-${strikeangle})*PI/180)
variable velz equal 3606.17656613*sin((90-15)*PI/180)

# Create Atom Structure (assuming diamond cubic lattice)
lattice     diamond 3.567 orient x 1 1 0 orient y 0 0 -1 orient z -1 1 0  # Diamond lattice constant for carbon in Angstroms with 1 0 0 x direction orientation.
Lattice spacing in x,y,z = 5.0444998 3.567 5.0444998
region      box block 0 20 0 20 0 200 units lattice
create_box  2 box
Created orthogonal box = (0 0 0) to (100.89 71.34 1008.9)
  2 by 2 by 16 MPI processor grid
region      slab block 0 20 0 20 60 140 units lattice
create_atoms 1 region slab
Created 513480 atoms
  using lattice units in orthogonal box = (0 0 0) to (100.89 71.34 1008.9)
  create_atoms CPU = 0.008 seconds

# Add tin atom
create_atoms 2 single ${posx} ${posy} ${posz} units lattice  # Position tin atom above the slab
create_atoms 2 single 42.9657869727057 ${posy} ${posz} units lattice  
create_atoms 2 single 42.9657869727057 34.3068485 ${posz} units lattice  
create_atoms 2 single 42.9657869727057 34.3068485 714.829629131445 units lattice  
Created 0 atoms
  using lattice units in orthogonal box = (0 0 0) to (100.89 71.34 1008.9)
  create_atoms CPU = 0.000 seconds

# Define Potential
pair_style      hybrid tersoff lj/cut 2.5  # tersoff
pair_coeff      * * tersoff /home/stovey/work/projects/quantum-lab/ballistic-diamond/lammps/potentials/SiC.tersoff C C # You may need to adjust the file name depending on your LAMMPS distribution
Reading tersoff potential file /home/stovey/work/projects/quantum-lab/ballistic-diamond/lammps/potentials/SiC.tersoff with DATE: 2011-04-26
pair_coeff      1 2 lj/cut 0.01058 3.664 12.824 # Mixed LJ parameters for C-Sn interactions, adjust as necessary
pair_coeff      2 2 lj/cut 0.01029 3.55  # Example LJ parameters for Sn-Sn, adjust as needed


# Settings for carbon
mass        1 12.01
# Settings for tin
mass        2 118.71  # Mass of tin atom

# Create the atom groups
group           diamond type 1
513480 atoms in group diamond
group           tin type 2
0 atoms in group tin

velocity    diamond create 20 4928459 rot yes dist gaussian  # Initialize velocities
velocity    tin set 0.0 0.0 0.0 units box # Freeze for the warmup

# --------------------- #
# Diamond Equilibration #
# --------------------- #

# Define settings for dynamics
fix diamondNVT all nvt temp 300 300 $(100.0*dt)
fix diamondNVT all nvt temp 300 300 0.10000000000000000555
fix tinfreeze tin setforce 0.0 0.0 0.0

# Thermo output
thermo      1000                # Output thermo info every 1000 steps

# Dump settings for MD
dump equilibrate all custom 10000 /work/stovey/ballistic-diamond/tersoff-sweep/velocity-${strikespeed}/temperature-${annealtemp}/angle-${strikeangle}/equilibration.lammpstraj id type x y z vx vy vz
dump equilibrate all custom 10000 /work/stovey/ballistic-diamond/tersoff-sweep/velocity-3606.17656613/temperature-${annealtemp}/angle-${strikeangle}/equilibration.lammpstraj id type x y z vx vy vz
dump equilibrate all custom 10000 /work/stovey/ballistic-diamond/tersoff-sweep/velocity-3606.17656613/temperature-700/angle-${strikeangle}/equilibration.lammpstraj id type x y z vx vy vz
dump equilibrate all custom 10000 /work/stovey/ballistic-diamond/tersoff-sweep/velocity-3606.17656613/temperature-700/angle-15/equilibration.lammpstraj id type x y z vx vy vz
dump_modify equilibrate sort id

timestep 0.002

# Run Simulation 100 ps equilibration
run         50000              # Number of timesteps to simulate
Neighbor list info ...
  update: every = 1 steps, delay = 0 steps, check = yes
  max neighbors/atom: 2000, page size: 100000
  master list distance cutoff = 14.824
  ghost atom cutoff = 14.824
  binsize = 7.412, bins = 14 10 137
  4 neighbor lists, perpetual/occasional/extra = 4 0 0
  (1) pair tersoff, perpetual, skip from (4)
      attributes: full, newton on, cut 4.1
      pair build: skip
      stencil: none
      bin: none
  (2) pair lj/cut, perpetual, skip from (3)
      attributes: half, newton on
      pair build: skip
      stencil: none
      bin: none
  (3) neighbor class addition, perpetual
      attributes: half, newton on
      pair build: half/bin/atomonly/newton
      stencil: half/bin/3d
      bin: standard
  (4) neighbor class addition, perpetual
      attributes: full, newton on, cut 4.1
      pair build: full/bin/atomonly
      stencil: full/bin/3d
      bin: standard
Per MPI rank memory allocation (min/avg/max) = 67.92 | 108.7 | 169.7 Mbytes
   Step          Temp          E_pair         E_mol          TotEng         Press     
         0   20            -3778559.3      0             -3777231.9     -1843.8855    
      1000   158.7318      -3767833.1      0             -3757297.6      4732.5254    
      2000   308.32461     -3757960.2      0             -3737496        1220.7739    
      3000   303.58079     -3758316.3      0             -3738166.9      9049.0075    
      4000   297.53142     -3758261.4      0             -3738513.6      1721.4092    
      5000   296.81878     -3758549.7      0             -3738849.2      8190.5103    
      6000   299.41201     -3758390.6      0             -3738517.9      3020.0053    
      7000   301.46244     -3758392.1      0             -3738383.3      6660.2581    
      8000   300.7891      -3758306.8      0             -3738342.8      4885.8495    
      9000   299.97689     -3758423.6      0             -3738513.4      4746.8541    
     10000   298.33745     -3758480.3      0             -3738679        6977.4554    
     11000   299.24628     -3758340.6      0             -3738478.9      2669.8721    
     12000   299.80703     -3758374.8      0             -3738475.9      9638.7932    
     13000   300.52322     -3758115        0             -3738168.6      917.46112    
     14000   300.48956     -3758341.2      0             -3738397        9555.0518    
     15000   300.2714      -3758182.9      0             -3738253.2      1476.2613    
     16000   299.97167     -3758410.5      0             -3738500.6      8808.1763    
     17000   299.51415     -3758347.7      0             -3738468.2      2603.0261    
     18000   299.66809     -3758517        0             -3738627.3      7334.1312    
     19000   300.18039     -3758373.3      0             -3738449.6      4279.0681    
     20000   301.4808      -3758379.5      0             -3738369.5      5499.1273    
     21000   300.70681     -3758425.4      0             -3738466.8      6227.0775    
     22000   299.09492     -3758435.4      0             -3738583.7      3261.2161    
     23000   298.54703     -3758504.4      0             -3738689.2      8182.2642    
     24000   299.79924     -3758174        0             -3738275.6      1125.1983    
     25000   301.23692     -3758285.8      0             -3738292        9870.8339    
     26000   301.47235     -3758162        0             -3738152.5      1188.7775    
     27000   299.23247     -3758410.6      0             -3738549.9      9131.2577    
     28000   298.63082     -3758289.7      0             -3738468.9      2037.6241    
     29000   300.28789     -3758458.5      0             -3738527.6      7975.4617    
     30000   301.13317     -3758320.7      0             -3738333.8      3638.6494    
     31000   300.94094     -3758441.7      0             -3738467.5      6160.051     
     32000   299.72092     -3758491.9      0             -3738598.8      5429.8008    
     33000   299.46813     -3758475.3      0             -3738598.9      4234.1216    
     34000   300.24443     -3758470.8      0             -3738542.9      7520.242     
     35000   300.82162     -3758224.3      0             -3738258.1      2285.2832    
     36000   300.79743     -3758382.6      0             -3738417.9      9689.9309    
     37000   299.83631     -3758191.2      0             -3738290.3      901.74558    
     38000   299.14459     -3758393.8      0             -3738538.9      9497.0533    
     39000   299.94504     -3758194.3      0             -3738286.3      1719.4827    
     40000   301.03642     -3758380.1      0             -3738399.6      8579.031     
     41000   300.11372     -3758296.5      0             -3738377.3      2876.1254    
     42000   299.41601     -3758496.9      0             -3738624        6898.7245    
     43000   299.70205     -3758467.7      0             -3738575.8      4695.7244    
     44000   300.37091     -3758400.5      0             -3738464.2      5005.5189    
     45000   300.83737     -3758426.4      0             -3738459.1      6736.5796    
     46000   299.90315     -3758351.6      0             -3738446.4      3083.1743    
     47000   299.97854     -3758499.5      0             -3738589.2      8608.0421    
     48000   300.0457      -3758191.7      0             -3738277        1041.3619    
     49000   300.37942     -3758322.6      0             -3738385.7      9900.5588    
     50000   300.26299     -3758150.1      0             -3738220.9      1295.6764    
Loop time of 2301.92 on 2048 procs for 50000 steps with 513480 atoms

Performance: 3.753 ns/day, 6.394 hours/ns, 21.721 timesteps/s, 11.153 Matom-step/s
99.6% CPU use with 64 MPI tasks x 32 OpenMP threads

MPI task timing breakdown:
Section |  min time  |  avg time  |  max time  |%varavg| %total
---------------------------------------------------------------
Pair    | 0.081638   | 809.27     | 2060       |3324.4 | 35.16
Neigh   | 0.0023851  | 6.4744     | 17.426     | 306.2 |  0.28
Comm    | 0.047854   | 312.39     | 1794.4     |3228.0 | 13.57
Output  | 0.090191   | 0.18548    | 0.28776    |  13.8 |  0.01
Modify  | 21.938     | 1162.1     | 2288       |3299.6 | 50.49
Other   |            | 11.46      |            |       |  0.50

Nlocal:        8023.12 ave       20144 max           0 min
Histogram: 32 0 8 0 0 0 0 0 0 24
Nghost:        26735.4 ave       64185 max           0 min
Histogram: 32 0 0 8 0 0 0 0 0 24
Neighs:              0 ave           0 max           0 min
Histogram: 64 0 0 0 0 0 0 0 0 0

Total # of neighbors = 0
Ave neighs/atom = 0
Neighbor list builds = 43
Dangerous builds = 0
undump equilibrate
# -------------------- #
# Collision simulation #
# -------------------- #

# Define settings for dynamics
velocity tin set -${velx} 0.0 -${velz} units box # Shoot the tin atom towards the diamond
velocity tin set -933.347175316854 0.0 -${velz} units box 
velocity tin set -933.347175316854 0.0 -3483.2990793834 units box 
unfix tinfreeze

# Thermo output
thermo      1000                # Output thermo info every 1000 steps

# Dump settings for MD
dump collision all custom 100 /work/stovey/ballistic-diamond/tersoff-sweep/velocity-${strikespeed}/temperature-${annealtemp}/angle-${strikeangle}/collision.lammpstraj id type x y z vx vy vz
dump collision all custom 100 /work/stovey/ballistic-diamond/tersoff-sweep/velocity-3606.17656613/temperature-${annealtemp}/angle-${strikeangle}/collision.lammpstraj id type x y z vx vy vz
dump collision all custom 100 /work/stovey/ballistic-diamond/tersoff-sweep/velocity-3606.17656613/temperature-700/angle-${strikeangle}/collision.lammpstraj id type x y z vx vy vz
dump collision all custom 100 /work/stovey/ballistic-diamond/tersoff-sweep/velocity-3606.17656613/temperature-700/angle-15/collision.lammpstraj id type x y z vx vy vz
dump_modify collision sort id

timestep 0.0001
# Run Simulation 5 ps collision
run         50000              # Number of timesteps to simulate
Per MPI rank memory allocation (min/avg/max) = 67.92 | 108.7 | 169.7 Mbytes
   Step          Temp          E_pair         E_mol          TotEng         Press     
     50000   300.26299     -3758150.1      0             -3738220.9      1295.6764    
     51000   305.78216     -3758965.5      0             -3738670        835.4038     
     52000   299.85251     -3759176.3      0             -3739274.4      586.11701    
     53000   297.16711     -3759350.7      0             -3739627        560.33733    
     54000   297.70849     -3759390.2      0             -3739630.5      830.44605    
     55000   299.65739     -3759245        0             -3739356.1      1522.7027    
     56000   302.33555     -3759180.6      0             -3739113.9      2252.4804    
     57000   302.27261     -3759192.9      0             -3739130.4      2782.3825    
     58000   300.08139     -3759317.4      0             -3739400.3      3059.189     
     59000   298.85886     -3759505.5      0             -3739669.5      3529.3419    
     60000   298.60942     -3759570.3      0             -3739750.9      4287.5664    
     61000   299.05674     -3759468.7      0             -3739619.6      4784.4016    
     62000   300.89884     -3759395.6      0             -3739424.2      5283.8166    
     63000   301.55244     -3759372.9      0             -3739358.2      5881.8979    
     64000   301.06878     -3759469.9      0             -3739487.3      6279.4535    
     65000   298.78149     -3759512.5      0             -3739681.6      6889.637     
     66000   298.31386     -3759558.7      0             -3739758.9      7334.6211    
     67000   299.20844     -3759505        0             -3739645.9      7866.5593    
     68000   300.47733     -3759389.5      0             -3739446.1      8251.0252    
     69000   301.16682     -3759315.2      0             -3739326        8680.2253    
     70000   300.91603     -3759349.6      0             -3739377.1      8940.6649    
     71000   299.81646     -3759433.9      0             -3739534.4      9321.6923    
     72000   298.42319     -3759452.4      0             -3739645.3      9528.1369    
     73000   299.71036     -3759503.5      0             -3739611        9778.3457    
     74000   299.97133     -3759375.3      0             -3739465.5      9936.6832    
     75000   301.31719     -3759346.1      0             -3739346.9      9847.5647    
     76000   301.25996     -3759364        0             -3739368.7      9491.2615    
     77000   299.8773      -3759423.1      0             -3739519.5      8776.0978    
     78000   298.6885      -3759489.8      0             -3739665.1      8076.4797    
     79000   298.85203     -3759518.7      0             -3739683.2      7634.8857    
     80000   299.83923     -3759476.3      0             -3739575.2      7317.0353    
     81000   301.22239     -3759444.5      0             -3739451.7      6699.8333    
     82000   300.93322     -3759404        0             -3739430.4      5996.6645    
     83000   300.69535     -3759485.8      0             -3739528        5516.7689    
     84000   299.11487     -3759501.7      0             -3739648.8      4982.7519    
     85000   298.97749     -3759522.5      0             -3739678.7      4451.4504    
     86000   299.37558     -3759449.3      0             -3739579        4012.7544    
     87000   300.85797     -3759391.5      0             -3739422.9      3418.7045    
     88000   301.03662     -3759301.5      0             -3739321        2982.1923    
     89000   300.2021      -3759254.7      0             -3739329.5      2485.3705    
     90000   299.41987     -3759281.8      0             -3739408.6      2158.8035    
     91000   299.65961     -3759343.7      0             -3739454.6      1756.0131    
     92000   299.48557     -3759280        0             -3739402.4      1495.7323    
     93000   300.19603     -3759199.7      0             -3739275        1090.7407    
     94000   301.09176     -3759153.9      0             -3739169.8      913.77774    
     95000   300.9191      -3759140.6      0             -3739167.9      673.43142    
     96000   300.36011     -3759194.8      0             -3739259.2      570.30216    
     97000   299.20378     -3759217.2      0             -3739358.4      689.42653    
     98000   299.25554     -3759254.4      0             -3739392.1      1076.306     
     99000   300.05366     -3759275.2      0             -3739359.9      1790.7032    
    100000   300.62261     -3759279.2      0             -3739326.2      2437.0734    
Loop time of 2296.53 on 2048 procs for 50000 steps with 513480 atoms

Performance: 0.188 ns/day, 127.585 hours/ns, 21.772 timesteps/s, 11.179 Matom-step/s
99.6% CPU use with 64 MPI tasks x 32 OpenMP threads

MPI task timing breakdown:
Section |  min time  |  avg time  |  max time  |%varavg| %total
---------------------------------------------------------------
Pair    | 0.081927   | 802.44     | 2040.3     |3304.7 | 34.94
Neigh   | 9.0276e-05 | 0.29821    | 0.8021     |  65.6 |  0.01
Comm    | 0.044935   | 308.46     | 1753.1     |3171.1 | 13.43
Output  | 7.9377     | 17.542     | 27.727     | 142.5 |  0.76
Modify  | 20.128     | 1146.3     | 2255.5     |3272.5 | 49.92
Other   |            | 21.44      |            |       |  0.93

Nlocal:        8023.12 ave       20072 max           0 min
Histogram: 32 0 8 0 0 0 0 0 0 24
Nghost:        26736.8 ave       64161 max           0 min
Histogram: 32 0 0 8 0 0 0 0 0 24
Neighs:              0 ave           0 max           0 min
Histogram: 64 0 0 0 0 0 0 0 0 0

Total # of neighbors = 0
Ave neighs/atom = 0
Neighbor list builds = 2
Dangerous builds = 0
undump collision
# -------------------- #
# Annealing Simulation #
# -------------------- #

# Define settings for dynamics
unfix diamondNVT
fix diamondNVT2 all nvt temp ${annealtemp} ${annealtemp} $(100.0*dt)
fix diamondNVT2 all nvt temp 700 ${annealtemp} $(100.0*dt)
fix diamondNVT2 all nvt temp 700 700 $(100.0*dt)
fix diamondNVT2 all nvt temp 700 700 0.010000000000000000208

# Thermo output
thermo      1000                # Output thermo info every 1000 steps

# Dump settings for MD
dump anneal all custom 10000 /work/stovey/ballistic-diamond/tersoff-sweep/velocity-${strikespeed}/temperature-${annealtemp}/angle-${strikeangle}/annealing.lammpstraj id type x y z vx vy vz
dump anneal all custom 10000 /work/stovey/ballistic-diamond/tersoff-sweep/velocity-3606.17656613/temperature-${annealtemp}/angle-${strikeangle}/annealing.lammpstraj id type x y z vx vy vz
dump anneal all custom 10000 /work/stovey/ballistic-diamond/tersoff-sweep/velocity-3606.17656613/temperature-700/angle-${strikeangle}/annealing.lammpstraj id type x y z vx vy vz
dump anneal all custom 10000 /work/stovey/ballistic-diamond/tersoff-sweep/velocity-3606.17656613/temperature-700/angle-15/annealing.lammpstraj id type x y z vx vy vz
dump_modify anneal sort id

timestep 0.001
# Run Simulation 3 ns annealing
run        3000000              # Number of timesteps to simulate
Per MPI rank memory allocation (min/avg/max) = 67.92 | 108.7 | 169.7 Mbytes
   Step          Temp          E_pair         E_mol          TotEng         Press     
    100000   300.62261     -3759279.2      0             -3739326.2      2437.0734    
    101000   701.25189     -3731867.4      0             -3685323.7      19630.623    
    102000   699.55859     -3732237.1      0             -3685805.8      15321.298    
    103000   700.33268     -3731382.2      0             -3684899.5      6792.7152    
    104000   699.45846     -3731543.6      0             -3685118.9      7590.7983    
    105000   699.72385     -3732083.4      0             -3685641.1      18172.596    
    106000   700.38878     -3732083.7      0             -3685597.2      19039.381    
    107000   701.16863     -3731697        0             -3685158.8      8355.4207    
    108000   700.37936     -3731204.4      0             -3684718.6      6310.4101    
    109000   700.1433      -3732042.5      0             -3685572.4      14847.823    
    110000   699.95071     -3732006.8      0             -3685549.4      19701.873    
    111000   700.12832     -3732100.9      0             -3685631.7      12267.231    
    112000   700.35623     -3731122        0             -3684637.7      6347.4161    
    113000   700.65311     -3731895.8      0             -3685391.8      9448.478     
    114000   700.50318     -3731990.6      0             -3685496.6      18703.658    
    115000   699.47665     -3732144        0             -3685718.1      18344.943    
    116000   699.17506     -3731578.6      0             -3685172.7      7751.6838    
    117000   700.28846     -3731318.4      0             -3684838.5      6439.0385    
    118000   700.86487     -3732198.8      0             -3685680.8      16716.514    
    119000   700.54281     -3731936        0             -3685439.3      19635.361    
    120000   700.73372     -3731910.4      0             -3685401        10976.025    
    121000   699.98355     -3731237.3      0             -3684777.7      6083.1338    
    122000   700.95513     -3731998        0             -3685474        12494.952    
    123000   699.57704     -3731936.9      0             -3685504.3      19383.346    
    124000   700.07933     -3732279.7      0             -3685813.8      16317.593    
    125000   699.23116     -3731476        0             -3685066.4      7221.0622    
    126000   699.68201     -3731467.6      0             -3685028.1      7016.3296    
    127000   700.77968     -3732160.5      0             -3685648.1      17479.785    
    128000   700.31103     -3732166        0             -3685684.7      19388.997    
    129000   700.09742     -3731760.3      0             -3685293.2      9238.8437    
    130000   698.50661     -3731194.4      0             -3684832.9      6114.6992    
    131000   699.12839     -3732125        0             -3685722.2      14107.339    
    132000   701.79526     -3732057.5      0             -3685477.6      19619.822    
    133000   699.78064     -3732183.3      0             -3685737.2      13325.058    
    134000   700.23972     -3731173        0             -3684696.4      6665.0124    
    135000   699.52439     -3731623.1      0             -3685194        8634.5249    
    136000   699.6264      -3732042.9      0             -3685607        18186.875    
    137000   700.35188     -3732141.5      0             -3685657.4      18824.701    
    138000   701.3607      -3731605.8      0             -3685054.8      8510.1636    
    139000   702.34063     -3731261.2      0             -3684645.1      6203.5811    
    140000   697.84984     -3732139.2      0             -3685821.3      15610.291    
    141000   699.40994     -3731988.8      0             -3685567.3      19627.974    
    142000   697.71623     -3732098.1      0             -3685789        11686.993    
    143000   699.27175     -3731204        0             -3684791.7      6270.8532    
    144000   701.30513     -3732007.4      0             -3685460.2      11459.124    
    145000   700.71437     -3732009        0             -3685500.9      18871.783    
    146000   699.3279      -3732256.1      0             -3685840.1      17190.544    
    147000   699.18713     -3731521.2      0             -3685114.5      7787.6492    
    148000   701.32379     -3731437.6      0             -3684889.1      6608.1274    
    149000   699.42006     -3732195.4      0             -3685773.3      16792.884    
    150000   698.95309     -3732068.8      0             -3685677.6      19672.925    
    151000   701.20073     -3731922.1      0             -3685381.7      10321.031    
    152000   700.10369     -3731216.2      0             -3684748.6      6139.8808    
    153000   700.37005     -3732079.2      0             -3685594        13315.835    
    154000   699.29679     -3731895.8      0             -3685481.8      19449.729    
    155000   698.92229     -3732124.1      0             -3685735        14386.36     
    156000   700.62473     -3731211        0             -3684708.9      7165.122     
    157000   698.97249     -3731649.9      0             -3685257.5      7854.2312    
    158000   700.26795     -3732226.4      0             -3685748        17520.231    
    159000   699.84077     -3732140.8      0             -3685690.7      19258.955    
    160000   699.63706     -3731807.5      0             -3685370.9      9050.4055    
    161000   700.46899     -3731247.9      0             -3684756.1      6001.9503    
    162000   699.12215     -3732182.2      0             -3685779.8      14618.47     
    163000   700.36428     -3731950.8      0             -3685465.9      19635.788    
    164000   701.13032     -3732117.9      0             -3685582.2      12546.071    
    165000   700.577       -3731252.1      0             -3684753.2      6457.3626    
    166000   699.8149      -3731826.5      0             -3685378.2      10456.609    
    167000   700.04131     -3731903.1      0             -3685439.7      18391.566    
    168000   700.27251     -3732191.3      0             -3685712.5      17964.169    
    169000   700.20983     -3731620.8      0             -3685146.2      8410.1303    
    170000   700.32459     -3731311.5      0             -3684829.3      6312.8857    
    171000   700.23902     -3732176.7      0             -3685700.2      16147.856    
    172000   701.33639     -3732024.6      0             -3685475.3      19838.719    
    173000   700.65307     -3731878        0             -3685374        11257.531    
    174000   699.68503     -3731317.6      0             -3684877.8      6197.2648    
    175000   700.64059     -3732029.4      0             -3685526.3      12496.115    
    176000   700.76304     -3732036.7      0             -3685525.4      19110.088    
    177000   698.80967     -3732218.1      0             -3685836.4      15369.197    
    178000   700.55621     -3731447        0             -3684949.4      7657.8753    
    179000   699.63441     -3731479.9      0             -3685043.5      7331.5705    
    180000   700.54327     -3732158.4      0             -3685661.7      16831.416    
    181000   699.33037     -3732100.1      0             -3685683.9      19584.452    
    182000   699.57946     -3731828.1      0             -3685395.3      9785.8552    
    183000   699.79929     -3731332.6      0             -3684885.3      5925.4242    
    184000   699.98791     -3732091.6      0             -3685631.8      13786.354    
    185000   701.19257     -3731989.7      0             -3685449.9      19495.695    
    186000   699.79291     -3732109.2      0             -3685662.3      13386.532    
    187000   700.12372     -3731386.8      0             -3684918        6792.5541    
    188000   699.89512     -3731794.1      0             -3685340.4      9557.3611    
    189000   699.31404     -3732116.1      0             -3685701        17796.502    
    190000   700.09217     -3732158        0             -3685691.2      18592.857    
    191000   701.10038     -3731657.6      0             -3685123.9      9134.6829    
    192000   700.34662     -3731345.9      0             -3684862.2      5998.7711    
    193000   700.61921     -3732167.3      0             -3685665.5      15358.659    
    194000   699.62882     -3732032.7      0             -3685596.7      19813.507    
    195000   700.59367     -3732094        0             -3685594        12116.189    
    196000   700.79279     -3731301.8      0             -3684788.6      6414.3608    
    197000   699.19625     -3731894.9      0             -3685487.6      11675.566    
    198000   699.09075     -3731980.9      0             -3685580.6      18741.347    
    199000   700.03007     -3732166.8      0             -3685704.2      16261.304    
    200000   698.83764     -3731529.1      0             -3685145.6      8152.374     
    201000   701.94047     -3731559.9      0             -3684970.4      6793.6517    
    202000   700.40554     -3732133.5      0             -3685645.9      16154.828    
    203000   699.76747     -3732045.5      0             -3685600.3      19897.607    
    204000   700.08543     -3731845.4      0             -3685379.1      10622.562    
    205000   699.36156     -3731230.7      0             -3684812.5      6024.7525    
    206000   700.2281      -3732021.7      0             -3685545.9      12945.636    
    207000   699.64248     -3731975.8      0             -3685538.9      19233.492    
    208000   699.68632     -3732137.2      0             -3685697.3      14231.462    
    209000   700.29862     -3731425.6      0             -3684945.1      7232.114     
    210000   699.64545     -3731631        0             -3685193.9      8748.0004    
    211000   699.9913      -3732083.9      0             -3685623.8      17219.99     
    212000   699.23394     -3732093.6      0             -3685683.8      19062.818    
    213000   699.80545     -3731780.8      0             -3685333.1      9744.5777    
    214000   700.78119     -3731308.5      0             -3684796        5802.9908    
    215000   699.8057      -3732152.1      0             -3685704.3      14523.348    
    216000   700.08519     -3731961.7      0             -3685495.4      19728.71     
    217000   698.99856     -3732096.1      0             -3685701.9      12928.825    
    218000   700.46581     -3731327.8      0             -3684836.3      6726.9438    
    219000   699.28244     -3731854.3      0             -3685441.2      10857.637    
    220000   698.81597     -3732104.4      0             -3685722.3      18123.404    
    221000   699.45655     -3732117.9      0             -3685693.3      17099.373    
    222000   700.02741     -3731663.8      0             -3685201.3      8724.1799    
    223000   700.44395     -3731405.3      0             -3684915.2      6407.8097    
    224000   700.72239     -3732159.7      0             -3685651.1      15478.059    
    225000   699.56653     -3732138.4      0             -3685706.5      19941.589    
    226000   699.92567     -3731934.7      0             -3685479        11343.794    
    227000   699.67282     -3731291.1      0             -3684852.1      6145.959     
    228000   699.0711      -3731976.6      0             -3685577.6      12175.54     
    229000   699.65455     -3732020.4      0             -3685582.7      18922.178    
    230000   701.05169     -3732065.7      0             -3685535.2      15073.839    
    231000   699.76085     -3731506.3      0             -3685061.5      7808.9658    
    232000   700.01988     -3731586.8      0             -3685124.8      8068.9781    
    233000   700.77293     -3732131.2      0             -3685619.2      16501.109    
    234000   699.79961     -3732168.3      0             -3685721        19417.814    
    235000   698.6974      -3731865.6      0             -3685491.4      10444.394    
    236000   699.36866     -3731305.6      0             -3684886.8      5777.3373    
    237000   700.28942     -3732174.5      0             -3685694.6      13684.83     
    238000   699.45233     -3732057.9      0             -3685633.5      19471.464    
    239000   699.42629     -3732033.8      0             -3685611.2      13741.662    
    240000   699.92607     -3731427.5      0             -3684971.8      7007.835     
    241000   701.66476     -3731869.9      0             -3685298.7      10131        
    242000   700.02329     -3732022.3      0             -3685560.1      17588.551    
    243000   700.25375     -3732099.5      0             -3685622        17836.513    
    244000   700.73272     -3731757.8      0             -3685248.5      9422.3469    
    245000   699.20712     -3731267.9      0             -3684859.9      6146.1569    
    246000   699.58744     -3732195.2      0             -3685761.9      14707.49     
    247000   700.71213     -3732131.8      0             -3685623.9      19994.301    
    248000   699.16258     -3731997.6      0             -3685592.6      12195.406    
    249000   700.27029     -3731307.1      0             -3684828.5      6437.5916    
    250000   699.85841     -3731996        0             -3685544.8      11419.463    
    251000   699.51093     -3732037.6      0             -3685609.4      18507.53     
    252000   700.29027     -3732163.1      0             -3685683.2      15794.951    
    253000   701.64922     -3731498.8      0             -3684928.6      8402.6714    
    254000   701.07093     -3731542.9      0             -3685011.2      7461.9034    
    255000   700.6333      -3732171.2      0             -3685668.5      15797.159    
    256000   700.33734     -3732133.2      0             -3685650.1      19673.959    
    257000   698.77277     -3731928.3      0             -3685549.1      11161.371    
    258000   699.432       -3731303.1      0             -3684880.2      5805.8415    
    259000   700.04642     -3732049.4      0             -3685585.6      12885.21     
    260000   700.74141     -3731923.4      0             -3685413.6      19253.541    
    261000   701.18766     -3732100.8      0             -3685561.3      14430.136    
    262000   700.54091     -3731419.6      0             -3684923        7421.0397    
    263000   697.46068     -3731772.5      0             -3685480.4      9404.7122    
    264000   700.1083      -3732037        0             -3685569.2      17013.628    
    265000   699.18319     -3732110.3      0             -3685703.9      18390.606    
    266000   700.96927     -3731836.9      0             -3685311.9      10104.699    
    267000   700.34468     -3731287.1      0             -3684803.5      5975.8948    
    268000   700.35111     -3732227.9      0             -3685743.9      14035.297    
    269000   700.99512     -3732068.7      0             -3685542        19917.072    
    270000   699.20437     -3732050.8      0             -3685643        13000.641    
    271000   699.70078     -3731287.1      0             -3684846.3      6719.226     
    272000   700.6949      -3731854.2      0             -3685347.4      10779.863    
    273000   700.61287     -3732064.5      0             -3685563.2      18035.178    
    274000   698.49848     -3732145        0             -3685784        16459.254    
    275000   700.4445      -3731637.9      0             -3685147.8      8940.5691    
    276000   700.67946     -3731462.4      0             -3684956.7      7010.7243    
    277000   700.05904     -3732113.1      0             -3685648.5      15049.674    
    278000   700.17438     -3732055        0             -3685582.7      19860.263    
    279000   700.16586     -3732025.9      0             -3685554.2      11816.391    
    280000   699.43027     -3731226.9      0             -3684804.1      6001.7172    
    281000   700.6803      -3732116.3      0             -3685610.5      12093.341    
    282000   701.65893     -3732077.2      0             -3685506.4      18833.512    
    283000   699.92882     -3732107.9      0             -3685651.9      15152.503    
    284000   700.02493     -3731582.8      0             -3685120.5      7953.2074    
    285000   700.15033     -3731663.2      0             -3685192.5      8794.1244    
    286000   700.1689      -3732101.3      0             -3685629.5      16303.599    
    287000   699.31278     -3732030.8      0             -3685615.7      18858.944    
    288000   700.45397     -3731988.8      0             -3685498        10820.233    
    289000   700.04522     -3731282.2      0             -3684818.5      5880.7968    
    290000   699.42937     -3732142.8      0             -3685720.1      13330.222    
    291000   698.27181     -3732078.3      0             -3685732.3      19688.025    
    292000   700.36569     -3732215.9      0             -3685731        13741.107    
    293000   699.43483     -3731374.2      0             -3684951        7109.0756    
    294000   698.42124     -3731776.3      0             -3685420.4      10135.012    
    295000   699.20912     -3732109.3      0             -3685701.1      17448.192    
    296000   701.59226     -3732072.7      0             -3685506.4      17137.107    
    297000   700.8656      -3731766.9      0             -3685248.8      9599.7924    
    298000   698.89237     -3731345.8      0             -3684958.6      6688.9097    
    299000   700.28463     -3732175.1      0             -3685695.6      14330.653    
    300000   700.13944     -3732093.3      0             -3685623.3      19863.759    
    301000   699.52045     -3732153.8      0             -3685724.9      12505.139    
    302000   700.82134     -3731340.5      0             -3684825.4      6181.4373    
    303000   700.84189     -3731956.4      0             -3685439.8      11360.57     
    304000   699.13746     -3732100.4      0             -3685697        18410.967    
    305000   700.13218     -3732080.4      0             -3685611        15740.965    
    306000   698.54851     -3731497.5      0             -3685133.2      8494.9179    
    307000   700.75885     -3731659        0             -3685148        8237.0836    
    308000   700.81907     -3732089.3      0             -3685574.3      15701.069    
    309000   698.599       -3732188.8      0             -3685821.1      19085.795    
    310000   698.78811     -3731941.8      0             -3685561.6      11497.215    
    311000   699.3403      -3731238.1      0             -3684821.2      5974.9446    
    312000   699.14711     -3732066        0             -3685662        12627.15     
    313000   700.22701     -3732205.2      0             -3685729.5      19382.454    
    314000   698.77529     -3732129.1      0             -3685749.7      14498.576    
    315000   700.1923      -3731483.9      0             -3685010.5      7520.1297    
    316000   698.76378     -3731743.9      0             -3685365.3      9581.6322    
    317000   699.38167     -3732152.6      0             -3685732.9      16836.789    
    318000   701.59134     -3732086.8      0             -3685520.5      17601.675    
    319000   698.97965     -3731835.6      0             -3685442.6      10191.606    
    320000   700.40023     -3731312.9      0             -3684825.7      6498.1839    
    321000   700.11563     -3732109.2      0             -3685640.9      13686.947    
    322000   699.69986     -3732044.4      0             -3685603.7      19787.673    
    323000   699.7518      -3732072.7      0             -3685628.6      13200.487    
    324000   698.61424     -3731426.5      0             -3685057.8      6467.3495    
    325000   700.43044     -3731899.9      0             -3685410.7      10738.526    
    326000   699.46343     -3732084.5      0             -3685659.5      17912.501    
    327000   700.20176     -3731990.8      0             -3685516.7      16293.442    
    328000   700.4642      -3731747.1      0             -3685255.6      9101.9851    
    329000   701.01264     -3731502.7      0             -3684974.8      7808.3982    
    330000   699.28055     -3732163.5      0             -3685750.6      14965.729    
    331000   699.93138     -3732008.3      0             -3685552.2      19346.202    
    332000   699.25502     -3732055.2      0             -3685644        12174.759    
    333000   700.72515     -3731303.2      0             -3684794.4      6051.3509    
    334000   701.37103     -3732007.6      0             -3685456        11989.096    
    335000   699.91378     -3731963.7      0             -3685508.8      19094.505    
    336000   700.38759     -3732133.3      0             -3685646.9      15123.904    
    337000   699.65233     -3731474.8      0             -3685037.2      8042.5827    
    338000   698.93701     -3731638.2      0             -3685248.1      9166.8534    
    339000   699.65159     -3732002        0             -3685564.4      16240.015    
    340000   700.7357      -3732189.8      0             -3685680.3      17982.956    
    341000   701.15082     -3731925        0             -3685387.9      10876.222    
    342000   699.83127     -3731382.8      0             -3684933.3      6382.0647    
    343000   699.43171     -3732176.8      0             -3685753.8      12947.459    
    344000   698.77387     -3732058.5      0             -3685679.2      19623.675    
    345000   701.06529     -3732199.3      0             -3685668        13917.508    
    346000   699.95648     -3731436.4      0             -3684978.6      6863.8017    
    347000   700.28575     -3731817.7      0             -3685338.1      10123.703    
    348000   701.81897     -3732104.7      0             -3685523.3      17405.555    
    349000   698.96373     -3732133.2      0             -3685741.4      16754.049    
    350000   700.26961     -3731719.5      0             -3685241        9682.8184    
    351000   699.22765     -3731464.9      0             -3685055.5      7466.5292    
    352000   698.95491     -3732134.4      0             -3685743.1      14276.729    
    353000   699.86412     -3732098.6      0             -3685647        19382.785    
    354000   700.80936     -3732143.9      0             -3685629.5      12799.789    
    355000   699.88204     -3731340.1      0             -3684887.3      6221.1571    
    356000   700.51779     -3731911.6      0             -3685416.6      11349.607    
    357000   701.32255     -3732095.8      0             -3685547.3      18600.851    
    358000   700.21662     -3732148.7      0             -3685673.6      15732.357    
    359000   699.4098      -3731566.8      0             -3685145.3      8526.1059    
    360000   700.23302     -3731527        0             -3685050.9      8710.9084    
    361000   699.22211     -3732122.2      0             -3685713.2      15561.582    
    362000   699.57504     -3732090.6      0             -3685658.1      18357.075    
    363000   698.88022     -3732005.5      0             -3685619.2      11559.27     
    364000   700.09038     -3731360.4      0             -3684893.8      6378.1816    
    365000   699.30824     -3732002.5      0             -3685587.8      12411.876    
    366000   700.13337     -3732102.7      0             -3685633.2      19391.315    
    367000   699.34267     -3731997.7      0             -3685580.7      14515.238    
    368000   698.91682     -3731448.7      0             -3685060        7340.3452    
    369000   700.09446     -3731762        0             -3685295.1      9601.2837    
    370000   699.38427     -3732123.2      0             -3685703.5      16809.932    
    371000   700.53066     -3732154.4      0             -3685658.5      17193.051    
    372000   699.59022     -3731822.8      0             -3685389.3      10299.192    
    373000   699.60381     -3731449.8      0             -3685015.4      7201.0669    
    374000   700.14018     -3732202.3      0             -3685732.3      13555.784    
    375000   700.08681     -3732007.1      0             -3685540.7      19406.456    
    376000   699.67443     -3732109        0             -3685670        13451.612    
    377000   700.75762     -3731325.3      0             -3684814.4      6507.3573    
    378000   699.9715      -3731899.2      0             -3685440.4      10703.681    
    379000   700.18108     -3732145        0             -3685672.4      18109.945    
    380000   700.39738     -3732101.4      0             -3685614.4      16261.872    
    381000   700.3181      -3731742.4      0             -3685260.6      9059.1431    
    382000   700.62674     -3731529.1      0             -3685026.8      8340.9089    
    383000   700.47338     -3732060.9      0             -3685568.8      15013.027    
    384000   698.60507     -3732147.5      0             -3685779.4      18555.747    
    385000   700.42834     -3731936        0             -3685446.9      12299.782    
    386000   699.24956     -3731364.5      0             -3684953.6      6377.7748    
    387000   699.76321     -3732089        0             -3685644.1      11731.367    
    388000   700.05879     -3732126.7      0             -3685662.1      19116.368    
    389000   699.6405      -3732230.7      0             -3685793.9      15093.629    
    390000   698.5643      -3731459.7      0             -3685094.3      7811.0622    
    391000   699.81511     -3731721.8      0             -3685273.4      9125.5527    
    392000   700.33695     -3732126.2      0             -3685643.1      16265.582    
    393000   701.03024     -3732050.6      0             -3685521.6      17567.575    
    394000   700.32438     -3731903.6      0             -3685421.4      10850.33     
    395000   700.89702     -3731472.1      0             -3684951.9      7054.6817    
    396000   699.92528     -3732043.5      0             -3685587.8      12942.325    
    397000   700.32726     -3732158.2      0             -3685675.8      19295.193    
    398000   699.91694     -3732022.8      0             -3685567.6      14065.032    
    399000   699.9734      -3731448.2      0             -3684989.3      6797.9877    
    400000   699.37652     -3731803.5      0             -3685384.2      10142.167    
    401000   699.78476     -3732067.5      0             -3685621.1      17593.041    
    402000   700.13733     -3732113.1      0             -3685643.4      16665.229    
    403000   701.05811     -3731678.8      0             -3685147.9      9672.8917    
    404000   701.21931     -3731577.2      0             -3685035.6      8026.478     
    405000   699.6499      -3732159.3      0             -3685721.9      14338.666    
    406000   699.12885     -3732072.4      0             -3685669.6      18745.587    
    407000   700.95202     -3732189.1      0             -3685665.3      12884.678    
    408000   699.61893     -3731332.3      0             -3684897        6553.3888    
    409000   700.42481     -3731973.8      0             -3685484.9      11241.51     
    410000   700.80153     -3732024.5      0             -3685510.6      18793.954    
    411000   699.14696     -3732126.3      0             -3685722.3      15663.431    
    412000   699.0577      -3731544.6      0             -3685146.5      8340.2613    
    413000   699.06202     -3731543.1      0             -3685144.7      8815.7177    
    414000   699.95861     -3732139.9      0             -3685682        15610.172    
    415000   700.22744     -3732086.1      0             -3685610.3      17805.226    
    416000   700.44643     -3731920.5      0             -3685430.2      11550.05     
    417000   699.8656      -3731329.7      0             -3684878        7035.2121    
    418000   701.14362     -3731944.8      0             -3685408.2      12292.944    
    419000   700.45726     -3732055.7      0             -3685564.7      19149.181    
    420000   699.86271     -3732008.3      0             -3685556.7      14638.683    
    421000   699.26983     -3731408.2      0             -3684996        7219.7498    
    422000   699.91772     -3731741.1      0             -3685285.9      9680.1041    
    423000   699.41935     -3732056.1      0             -3685634        17057.346    
    424000   700.34006     -3732082.6      0             -3685599.3      17063.204    
    425000   700.5891      -3731855.9      0             -3685356.2      10224.8      
    426000   700.55245     -3731502.6      0             -3685005.3      7814.027     
    427000   698.3409      -3732042.4      0             -3685691.8      13655.992    
    428000   700.32493     -3732117.9      0             -3685635.7      18769.4      
    429000   700.79142     -3732077.8      0             -3685564.6      13518.26     
    430000   699.85437     -3731389.8      0             -3684938.8      6737.2485    
    431000   697.99831     -3731902        0             -3685574.2      10683.364    
    432000   700.45462     -3732155.1      0             -3685664.3      18272.608    
    433000   699.70372     -3732150.9      0             -3685709.9      16104.828    
    434000   699.17236     -3731681.7      0             -3685275.9      8832.6966    
    435000   700.56318     -3731559.9      0             -3685061.8      8500.0021    
    436000   700.64707     -3732130        0             -3685626.4      15027.061    
    437000   700.72875     -3732038.8      0             -3685529.8      18020.03     
    438000   700.00847     -3731973.6      0             -3685512.4      12206.647    
    439000   698.19315     -3731406.3      0             -3685065.6      6949.6214    
    440000   700.56011     -3731995.6      0             -3685497.8      11705.712    
    441000   699.59975     -3732031.9      0             -3685597.8      18915.721    
    442000   700.101       -3732074.7      0             -3685607.3      15114.218    
    443000   700.2506      -3731483.9      0             -3685006.6      7640.7354    
    444000   699.7877      -3731714.8      0             -3685268.3      9293.1603    
    445000   698.25876     -3732217.9      0             -3685872.9      16467.073    
    446000   700.12843     -3732077.4      0             -3685608.2      17380.865    
    447000   699.39307     -3731988.8      0             -3685568.5      10779.574    
    448000   699.95467     -3731449.2      0             -3684991.5      7648.0702    
    449000   698.7133      -3732020.1      0             -3685644.8      13039.232    
    450000   700.15446     -3732122.6      0             -3685651.6      18760.744    
    451000   699.7785      -3732061        0             -3685615        14142.065    
    452000   700.36689     -3731400.9      0             -3684915.9      7020.3265    
    453000   700.4073      -3731821.7      0             -3685334        10179.339    
    454000   697.80475     -3732147.3      0             -3685832.3      17789.902    
    455000   698.9991      -3732017.8      0             -3685623.6      16566.025    
    456000   701.11822     -3731619.8      0             -3685084.9      9418.34      
    457000   700.46835     -3731550.1      0             -3685058.3      8241.8669    
    458000   698.58828     -3732045.5      0             -3685678.5      14415.256    
    459000   699.84624     -3732034        0             -3685583.6      18175.731    
    460000   700.43772     -3732006        0             -3685516.3      12786.44     
    461000   701.21974     -3731429.9      0             -3684888.2      7044.6045    
    462000   701.04122     -3731962.2      0             -3685432.4      11203.437    
    463000   700.20166     -3731947        0             -3685472.9      18593.857    
    464000   701.70539     -3732147.4      0             -3685573.6      15658.75     
    465000   700.52404     -3731540.7      0             -3685045.3      8114.3864    
    466000   699.41256     -3731580.5      0             -3685158.9      8931.8121    
    467000   700.02955     -3732074.9      0             -3685612.3      15868.25     
    468000   699.81991     -3732109.5      0             -3685660.8      17583.928    
    469000   701.00433     -3732022        0             -3685494.7      11401.684    
    470000   699.89124     -3731436.1      0             -3684982.7      7517.7402    
    471000   699.368       -3732009.8      0             -3685591.1      12435.085    
    472000   700.98349     -3731983.6      0             -3685457.7      18700.41     
    473000   698.70229     -3732110.3      0             -3685735.8      14694.879    
    474000   699.93948     -3731500.4      0             -3685043.7      7327.8073    
    475000   701.84818     -3731699.9      0             -3685116.6      9750.0746    
    476000   699.79189     -3732206.8      0             -3685760        17235.58     
    477000   701.34245     -3732116.8      0             -3685567.1      16957.179    
    478000   700.03519     -3731842.2      0             -3685379.2      10040.198    
    479000   700.74351     -3731519.5      0             -3685009.5      8049.9586    
    480000   700.33207     -3732048.6      0             -3685565.9      13786.058    
    481000   700.80505     -3732011.1      0             -3685497.1      18223.837    
    482000   699.77937     -3731997.2      0             -3685551.2      13393.74     
    483000   700.53735     -3731495.9      0             -3684999.5      7152.8534    
    484000   700.46547     -3731906.6      0             -3685415        10616.492    
    485000   699.17669     -3732105.6      0             -3685699.6      18200.842    
    486000   699.87414     -3732063.8      0             -3685611.5      16165.142    
    487000   700.315       -3731627.8      0             -3685146.2      8616.9468    
    488000   699.92696     -3731609.2      0             -3685153.4      8572.2461    
    489000   700.50537     -3732129.9      0             -3685635.7      15213.364    
    490000   699.13927     -3732017.4      0             -3685613.9      17782.063    
    491000   700.19881     -3732092.1      0             -3685618.3      12059.61     
    492000   698.87096     -3731332.8      0             -3684947.1      7515.5105    
    493000   699.46914     -3732017.1      0             -3685591.7      11837.845    
    494000   699.42464     -3732095.9      0             -3685673.4      18458.808    
    495000   701.30696     -3732195        0             -3685647.6      15205.093    
    496000   699.01979     -3731503.7      0             -3685108.1      7714.9554    
    497000   700.08887     -3731614.7      0             -3685148.1      9304.1416    
    498000   701.31283     -3732082.2      0             -3685534.4      16754.057    
    499000   700.32511     -3732035.2      0             -3685553        17300.174    
    500000   700.68645     -3731892.5      0             -3685386.3      10643.666    
    501000   698.64873     -3731448.9      0             -3685077.9      7895.2801    
    502000   699.92624     -3732028.9      0             -3685573.1      13189.706    
    503000   699.54759     -3731998.5      0             -3685567.8      18222.522    
    504000   698.17162     -3732051.9      0             -3685712.6      13985.622    
    505000   700.71929     -3731481.6      0             -3684973.2      7403.3913    
    506000   700.26078     -3731884.9      0             -3685406.9      10169.256    
    507000   699.43513     -3732115.8      0             -3685692.6      17713.365    
    508000   699.56938     -3732059.4      0             -3685627.3      16556.895    
    509000   700.48903     -3731764.2      0             -3685271.1      9152.5985    
    510000   700.87414     -3731467.9      0             -3684949.2      8401.5212    
    511000   699.64553     -3732079        0             -3685641.9      14605.127    
    512000   700.08036     -3732150.4      0             -3685684.4      17860.265    
    513000   700.82235     -3732001.5      0             -3685486.2      12641.603    
    514000   699.94254     -3731389.7      0             -3684932.9      7532.5623    
    515000   699.32468     -3732000.4      0             -3685584.6      11206.979    
    516000   699.87069     -3732125.1      0             -3685673.1      18223.992    
    517000   699.70279     -3732023.6      0             -3685582.7      15667.165    
    518000   699.82385     -3731562.5      0             -3685113.5      8199.2366    
    519000   701.41323     -3731670.8      0             -3685116.4      8955.5823    
    520000   699.59157     -3732135.2      0             -3685701.6      16087.481    
    521000   699.33217     -3731986.8      0             -3685570.5      17460.583    
    522000   700.42608     -3731963.8      0             -3685474.9      11235.211    
    523000   700.59162     -3731444.8      0             -3684944.9      7838.0715    
    524000   699.11828     -3732001.1      0             -3685599        12585.821    
    525000   699.28015     -3732011.8      0             -3685598.9      18208.173    
    526000   699.21729     -3732121.1      0             -3685712.4      14559.04     
    527000   699.23593     -3731523.3      0             -3685113.3      7613.6227    
    528000   700.76056     -3731876.2      0             -3685365        9693.6805    
    529000   698.81561     -3732147.3      0             -3685765.3      17287.181    
    530000   700.81918     -3732147.8      0             -3685632.7      16928.642    
    531000   699.71144     -3731799.4      0             -3685357.9      9751.0684    
    532000   699.52379     -3731627.8      0             -3685198.7      8098.8164    
    533000   701.0128      -3732065        0             -3685537.1      13964.601    
    534000   700.07482     -3732040.1      0             -3685574.5      17922.247    
    535000   700.72672     -3731958.4      0             -3685449.5      13295.209    
    536000   700.10967     -3731481.2      0             -3685013.3      7627.3781    
    537000   700.07053     -3731914        0             -3685448.6      10690.229    
    538000   700.55769     -3732182.6      0             -3685685        17936.968    
    539000   699.61988     -3732154.6      0             -3685719.1      16099.198    
    540000   701.41551     -3731650.1      0             -3685095.5      8591.3404    
    541000   700.14702     -3731643.2      0             -3685172.8      8593.2815    
    542000   699.33463     -3732075.4      0             -3685658.9      15514.551    
    543000   699.64467     -3732061.6      0             -3685624.5      17686.807    
    544000   698.93785     -3732069.9      0             -3685679.7      11831.31     
    545000   700.50143     -3731423        0             -3684929.1      7819.8155    
    546000   698.92367     -3731991        0             -3685601.8      12008.51     
    547000   701.00463     -3732050.6      0             -3685523.2      18059.872    
    548000   700.29683     -3732108.1      0             -3685627.8      15077.397    
    549000   700.52455     -3731552.5      0             -3685057        7948.6413    
    550000   699.7676      -3731639.5      0             -3685194.3      9347.6095    
    551000   699.72914     -3732014        0             -3685571.3      16870.289    
    552000   699.79708     -3732080.6      0             -3685633.4      17218.323    
    553000   699.69885     -3731831        0             -3685390.3      10327.154    
    554000   698.60568     -3731471.6      0             -3685103.5      7968.2124    
    555000   699.4757      -3732075.5      0             -3685649.6      13399.565    
    556000   700.03419     -3732033.7      0             -3685570.7      17940.829    
    557000   700.72938     -3732079.2      0             -3685570.2      13823.88     
    558000   700.00224     -3731467.7      0             -3685006.9      7781.3168    
    559000   698.86795     -3731815.9      0             -3685430.3      10229.145    
    560000   700.63173     -3732121.5      0             -3685618.9      17621.777    
    561000   700.4432      -3732079.2      0             -3685589.1      16536.467    
    562000   700.83382     -3731678.8      0             -3685162.8      9093.3274    
    563000   701.10902     -3731567.7      0             -3685033.5      8392.605     
    564000   699.08035     -3732008.8      0             -3685609.1      14974.671    
    565000   700.03795     -3731968.6      0             -3685505.4      17810.46     
    566000   700.17012     -3731986.2      0             -3685514.2      12420.827    
    567000   698.25982     -3731465.8      0             -3685120.7      7840.2128    
    568000   699.82431     -3731888.9      0             -3685439.9      11509.155    
    569000   698.94192     -3732008.3      0             -3685617.9      17887.489    
    570000   699.83189     -3732107        0             -3685657.5      15571.783    
    571000   699.96349     -3731548.9      0             -3685090.7      8261.6624    
    572000   700.13272     -3731558.6      0             -3685089.1      9011.5787    
    573000   698.32218     -3732045.4      0             -3685696.1      16293.67     
    574000   700.4571      -3732144.4      0             -3685653.4      17413.397    
    575000   699.31119     -3731952.8      0             -3685537.8      10890.749    
    576000   699.85972     -3731490.4      0             -3685039        7912.594     
    577000   700.36781     -3732002.1      0             -3685517.1      12812.141    
    578000   699.4791      -3732103.9      0             -3685677.8      17860.354    
    579000   698.94512     -3731914.4      0             -3685523.8      14364.762    
    580000   700.09139     -3731573.6      0             -3685106.8      7994.9878    
    581000   699.71225     -3731763.6      0             -3685322        9889.3867    
    582000   699.88448     -3732159.3      0             -3685706.3      17183.778    
    583000   700.15711     -3732117.6      0             -3685646.5      16788.541    
    584000   700.41903     -3731785.7      0             -3685297.2      9553.1338    
    585000   699.70641     -3731551.3      0             -3685110.1      8213.913     
    586000   700.51505     -3732018.1      0             -3685523.3      14374.17     
    587000   700.88899     -3732049.4      0             -3685529.8      17840.393    
    588000   700.95884     -3731948.5      0             -3685424.2      13052.138    
    589000   700.02193     -3731440.2      0             -3684978.1      7889.8052    
    590000   699.38486     -3731894.3      0             -3685474.5      10927.66     
    591000   700.64688     -3732046.9      0             -3685543.3      17595.873    
    592000   700.32948     -3732176.4      0             -3685693.9      15981.902    
    593000   699.45558     -3731651.3      0             -3685226.8      8675.7087    
    594000   700.26937     -3731645        0             -3685166.5      8702.2226    
    595000   700.05156     -3732109.9      0             -3685645.9      15787.323    
    596000   700.59254     -3731991.2      0             -3685491.3      17597.676    
    597000   701.36873     -3731975.5      0             -3685424        11493.014    
    598000   699.61944     -3731424.4      0             -3684989        7928.4611    
    599000   699.36644     -3732072.8      0             -3685654.2      12227.174    
    600000   698.84823     -3732042.1      0             -3685657.9      17798.879    
    601000   699.80082     -3732107.7      0             -3685660.3      14866.135    
    602000   698.8215      -3731584.8      0             -3685202.3      8235.0478    
    603000   699.14011     -3731769.4      0             -3685365.9      9449.7361    
    604000   700.18591     -3732122.7      0             -3685649.7      16768.116    
    605000   700.55813     -3732150.5      0             -3685652.8      17080.108    
    606000   699.98986     -3731751.4      0             -3685291.4      10090.836    
    607000   700.31724     -3731446.3      0             -3684964.6      8101.5247    
    608000   699.95792     -3732013.4      0             -3685555.5      13747.527    
    609000   701.81322     -3731975.8      0             -3685394.8      17832.954    
    610000   699.15396     -3731976.9      0             -3685572.4      13574.118    
    611000   700.29151     -3731453.9      0             -3684973.9      8069.8347    
    612000   700.29057     -3731856.9      0             -3685377        10465.23     
    613000   701.26033     -3732108.4      0             -3685564.1      17331.293    
    614000   700.92909     -3732105.2      0             -3685582.9      16344.611    
    615000   699.74483     -3731783.1      0             -3685339.3      9070.7791    
    616000   698.21454     -3731592.4      0             -3685250.2      8421.9557    
    617000   700.39364     -3732239.5      0             -3685752.7      15178.759    
    618000   700.88429     -3732014.9      0             -3685495.5      17735.831    
    619000   699.58996     -3731936.7      0             -3685503.2      12084.182    
    620000   700.68394     -3731534.9      0             -3685028.8      7958.379     
    621000   700.29403     -3731896.7      0             -3685416.5      11754.511    
    622000   699.83128     -3732066.1      0             -3685616.7      17584.158    
    623000   698.35675     -3732161.7      0             -3685810.2      15291.726    
    624000   699.7499      -3731607.9      0             -3685163.8      8499.8797    
    625000   700.33761     -3731673.8      0             -3685190.7      9177.774     
    626000   700.65002     -3732099.7      0             -3685595.9      16319.417    
    627000   701.33683     -3732098        0             -3685548.6      17334.387    
    628000   700.05659     -3731937.6      0             -3685473.2      10601.568    
    629000   698.55891     -3731516.8      0             -3685151.8      7935.2841    
    630000   698.85361     -3732061.4      0             -3685676.8      13104.39     
    631000   698.8543      -3731967.3      0             -3685582.7      17757.973    
    632000   700.84815     -3732075.3      0             -3685558.3      14124.503    
    633000   700.3407      -3731501        0             -3685017.7      8266.3066    
    634000   700.85631     -3731843.1      0             -3685325.6      10043.921    
    635000   698.72679     -3732119.1      0             -3685743        16982.601    
    636000   700.05674     -3732142.9      0             -3685678.4      16686.131    
    637000   699.07763     -3731698.1      0             -3685298.6      9583.0799    
    638000   700.09918     -3731572.2      0             -3685105        8312.1512    
    639000   699.76024     -3732102.2      0             -3685657.4      14618.013    
    640000   700.20259     -3732066        0             -3685591.9      17802.762    
    641000   699.67219     -3732028.2      0             -3685589.3      12704.174    
    642000   699.1244      -3731452.2      0             -3685049.7      8050.7641    
    643000   698.55053     -3731927.8      0             -3685563.3      11176.372    
    644000   698.90255     -3731998.3      0             -3685610.5      17355.976    
    645000   698.97634     -3732072.6      0             -3685679.9      15831.154    
    646000   700.79485     -3731594.8      0             -3685081.4      8916.1487    
    647000   700.89496     -3731585.4      0             -3685065.4      8860.0281    
    648000   700.18223     -3732098        0             -3685625.2      15791.391    
    649000   700.40621     -3732051.7      0             -3685564.1      17512.499    
    650000   700.85043     -3731840.9      0             -3685323.8      11225.78     
    651000   700.53598     -3731536.6      0             -3685040.3      7958.1048    
    652000   701.08971     -3732065.7      0             -3685532.7      12553.826    
    653000   699.33466     -3732157.9      0             -3685741.4      17567.616    
    654000   698.92534     -3732104.7      0             -3685715.4      14595.053    
    655000   700.75665     -3731509.1      0             -3684998.2      8517.2227    
    656000   701.0976      -3731661.5      0             -3685127.9      9645.9272    
    657000   699.30998     -3732111.2      0             -3685696.3      16605.096    
    658000   701.67792     -3732118.9      0             -3685546.9      16988.272    
    659000   699.47684     -3731793.9      0             -3685368        10094.525    
    660000   699.28004     -3731514.4      0             -3685101.5      8174.7497    
    661000   699.79134     -3731905.8      0             -3685459        14124.23     
    662000   700.21666     -3732101.1      0             -3685626.1      17755.571    
    663000   701.24377     -3732119.5      0             -3685576.3      13290.51     
    664000   699.54174     -3731490.5      0             -3685060.2      8157.3907    
    665000   699.49631     -3731885.1      0             -3685457.9      10686.557    
    666000   701.07497     -3732113.7      0             -3685581.7      17083.37     
    667000   700.09855     -3732129.2      0             -3685662        16175.311    
    668000   700.47046     -3731730.2      0             -3685238.3      9304.3318    
    669000   700.87679     -3731592.8      0             -3685073.9      8555.949     
    670000   701.43217     -3732075.6      0             -3685519.9      15303.96     
    671000   700.27597     -3732145.1      0             -3685666.1      17618.886    
    672000   698.82387     -3731941.1      0             -3685558.5      11752.134    
    673000   699.57009     -3731480        0             -3685047.9      8018.1883    
    674000   700.1823      -3731991.5      0             -3685518.8      11984.179    
    675000   699.70014     -3732068        0             -3685627.2      17452.948    
    676000   699.94773     -3732036.5      0             -3685579.3      15126.992    
    677000   699.75807     -3731670.7      0             -3685226.1      8771.4353    
    678000   698.20773     -3731638.8      0             -3685297.1      9319.431     
    679000   700.53509     -3732165.9      0             -3685669.7      16142.973    
    680000   699.54434     -3731977.5      0             -3685547.1      17245.579    
    681000   699.38254     -3731917.7      0             -3685498        10534.453    
    682000   701.49254     -3731373.9      0             -3684814.2      8154.049     
    683000   698.64548     -3732023.2      0             -3685652.4      13485.994    
    684000   700.1116      -3732094.9      0             -3685626.8      17654.231    
    685000   699.28216     -3732049.8      0             -3685636.8      13849.732    
    686000   700.67313     -3731546.6      0             -3685041.3      8397.5402    
    687000   700.08757     -3731867.3      0             -3685400.9      10266.51     
    688000   699.79673     -3732155.3      0             -3685708.2      16667.182    
    689000   697.58233     -3732110.9      0             -3685810.7      16476.55     
    690000   700.34336     -3731733        0             -3685249.6      9733.3679    
    691000   701.28864     -3731590.4      0             -3685044.2      8431.6215    
    692000   699.83323     -3732109.5      0             -3685659.9      14757.407    
    693000   700.14335     -3732058.4      0             -3685588.2      17623.354    
    694000   698.70182     -3732033.8      0             -3685659.3      12333.15     
    695000   698.82666     -3731475.6      0             -3685092.8      8156.379     
    696000   700.87475     -3731905.2      0             -3685386.5      11534.714    
    697000   700.26363     -3732104.1      0             -3685626        17238.589    
    698000   700.54854     -3732158        0             -3685661        15547.694    
    699000   699.82387     -3731577.2      0             -3685128.2      9147.5224    
    700000   699.91137     -3731666.7      0             -3685211.9      9010.2824    
    701000   699.71667     -3732157.2      0             -3685715.4      15675.386    
    702000   699.54753     -3732022.5      0             -3685591.9      17384.697    
    703000   699.45758     -3731832.6      0             -3685407.9      11052.455    
    704000   700.41548     -3731563.2      0             -3685075        8075.6006    
    705000   700.97676     -3731983.8      0             -3685458.3      12963.632    
    706000   700.30269     -3731930        0             -3685449.2      17547.086    
    707000   700.52458     -3732073.7      0             -3685578.2      14288.984    
    708000   699.53438     -3731518.6      0             -3685088.8      8579.2284    
    709000   700.49534     -3731841.7      0             -3685348.2      9825.8585    
    710000   701.06156     -3731938        0             -3685406.9      16415.29     
    711000   700.94171     -3732038.9      0             -3685515.7      16813.415    
    712000   700.59012     -3731826.9      0             -3685327        10197.293    
    713000   701.14381     -3731452.4      0             -3684915.9      8315.8627    
    714000   699.20368     -3732111.6      0             -3685703.8      14231.266    
    715000   699.79074     -3731999.3      0             -3685552.5      17671.297    
    716000   699.70231     -3732043.3      0             -3685602.4      12851.816    
    717000   699.60111     -3731588.2      0             -3685154        8281.4314    
    718000   701.7265      -3731775.6      0             -3685200.3      11100.785    
    719000   699.99032     -3731961.7      0             -3685501.6      16980.135    
    720000   699.974       -3732103.9      0             -3685645        15937.904    
    721000   700.04933     -3731667.5      0             -3685203.6      9499.4354    
    722000   700.00717     -3731657.9      0             -3685196.7      8797.2195    
    723000   698.64485     -3732109.6      0             -3685738.8      15155.84     
    724000   699.83691     -3732142        0             -3685692.2      17496.169    
    725000   699.84988     -3731981.5      0             -3685530.8      11576.244    
    726000   700.5808      -3731549        0             -3685049.7      8120.0204    
    727000   698.30346     -3732032.1      0             -3685684        12363.44     
    728000   699.67504     -3732005.5      0             -3685566.4      17342.318    
    729000   699.63331     -3732117        0             -3685680.7      14729.29     
    730000   700.33218     -3731602.9      0             -3685120.2      8911.2395    
    731000   699.83102     -3731899.3      0             -3685449.9      9450.8077    
    732000   699.04253     -3732034.8      0             -3685637.7      16012.354    
    733000   698.74076     -3732016        0             -3685638.9      17016.96     
    734000   700.4876      -3731849.7      0             -3685356.7      10669.929    
    735000   699.17899     -3731471.9      0             -3685065.7      8240.308     
    736000   700.19213     -3732055.9      0             -3685582.5      13734.638    
    737000   699.10087     -3732067        0             -3685666        17606.846    
    738000   700.7209      -3732026        0             -3685517.5      13434.785    
    739000   700.37627     -3731559.4      0             -3685073.8      8495.5682    
    740000   700.22347     -3731787.1      0             -3685311.6      10617.19     
    741000   699.93571     -3732033.7      0             -3685577.3      16678.311    
    742000   699.18666     -3732018.9      0             -3685612.2      16291.493    
    743000   700.84104     -3731742        0             -3685225.6      9831.9511    
    744000   699.05103     -3731565.1      0             -3685167.4      8584.0488    
    745000   699.966       -3732048.3      0             -3685589.8      14737.011    
    746000   699.65617     -3732032.9      0             -3685595        17522.788    
    747000   701.82077     -3731918.9      0             -3685337.4      12143.123    
    748000   699.66539     -3731521.3      0             -3685082.9      8162.696     
    749000   700.07796     -3732001.6      0             -3685535.8      11887.372    
    750000   699.91214     -3732071.5      0             -3685616.7      17161.338    
    751000   700.86004     -3732138.7      0             -3685620.9      15199.006    
    752000   700.21642     -3731747.1      0             -3685272.1      9135.0936    
    753000   700.84323     -3731751.6      0             -3685235        9223.0427    
    754000   700.41107     -3732005.5      0             -3685517.6      15638.722    
    755000   701.09344     -3732090.2      0             -3685557        17214.071    
    756000   700.26622     -3731893        0             -3685414.7      11081.544    
    757000   699.55201     -3731566.6      0             -3685135.6      8190.9595    
    758000   699.2585      -3732011.4      0             -3685599.9      13224.403    
    759000   700.76526     -3732000.2      0             -3685488.7      17501.826    
    760000   700.28807     -3731984.5      0             -3685504.7      13907.687    
    761000   700.3771      -3731586.5      0             -3685100.8      8699.2611    
    762000   699.75357     -3731742.7      0             -3685298.4      10216.688    
    763000   699.80646     -3732038.1      0             -3685590.3      16341.864    
    764000   699.65105     -3732061.7      0             -3685624.2      16545.001    
    765000   699.75329     -3731858.1      0             -3685413.8      10238.721    
    766000   700.52121     -3731530.3      0             -3685035.1      8420.754     
    767000   699.95343     -3732041        0             -3685583.5      14231.978    
    768000   700.25237     -3732117.7      0             -3685640.3      17490.06     
    769000   701.58003     -3731990.9      0             -3685425.4      12632.638    
    770000   699.99072     -3731617.6      0             -3685157.6      8332.3955    
    771000   699.63483     -3731938.6      0             -3685502.1      11376.967    
    772000   699.52125     -3731989.9      0             -3685561.1      16918.792    
    773000   700.03968     -3732046.3      0             -3685583        15598.734    
    774000   700.54557     -3731769.5      0             -3685272.7      9484.7732    
    775000   700.05682     -3731680.3      0             -3685215.9      8987.1612    
    776000   700.94659     -3732160.1      0             -3685636.7      15127.091    
    777000   700.30211     -3732067.6      0             -3685586.9      17375.85     
    778000   700.11258     -3731861.9      0             -3685393.8      11565.849    
    779000   699.88701     -3731444.1      0             -3684991        8257.1381    
    780000   699.52199     -3732032.6      0             -3685603.7      12657.762    
    781000   699.81079     -3731912.2      0             -3685464.1      17347.967    
    782000   700.13183     -3732081.5      0             -3685612.1      14390.972    
    783000   699.06118     -3731692.4      0             -3685294.1      8932.3087    
    784000   699.40908     -3731669.5      0             -3685248.1      9879.0601    
    785000   699.51729     -3732067.9      0             -3685639.2      15979.493    
    786000   700.52473     -3732029.8      0             -3685534.3      16792.931    
    787000   701.27221     -3731789.9      0             -3685244.8      10738.533    
    788000   699.80976     -3731610.3      0             -3685162.3      8320.475     
    789000   699.96787     -3732131        0             -3685672.5      13790.141    
    790000   700.57175     -3732056.4      0             -3685557.8      17517.827    
    791000   699.74697     -3732021.8      0             -3685578        13090.066    
    792000   698.75691     -3731647        0             -3685268.9      8432.0814    
    793000   699.70861     -3731722.9      0             -3685281.6      11032.108    
[...]
   2885000   700.31966     -3731885.2      0             -3685403.3      13310.026    
   2886000   701.16594     -3731998.4      0             -3685460.3      14036.517    
   2887000   698.71058     -3731953.5      0             -3685578.4      12752.724    
   2888000   700.01114     -3731852.7      0             -3685391.3      11606.404    
   2889000   699.02892     -3731830.2      0             -3685434        12570.411    
   2890000   697.9465      -3731937.9      0             -3685613.5      13955.893    
   2891000   699.54429     -3731897.3      0             -3685466.9      13418.666    
   2892000   699.02286     -3731832.1      0             -3685436.3      11884.8      
   2893000   700.7858      -3731936.6      0             -3685423.8      11970.878    
   2894000   700.27627     -3731971.8      0             -3685492.8      13646.837    
   2895000   700.13553     -3731942.8      0             -3685473.2      13961.328    
   2896000   700.51993     -3731933.4      0             -3685438.2      12397.715    
   2897000   700.56675     -3731803.6      0             -3685305.3      11656.131    
   2898000   699.03778     -3731857.6      0             -3685460.8      12840.917    
   2899000   700.61799     -3731942.4      0             -3685440.8      14082.666    
   2900000   700.57078     -3731979.6      0             -3685481.1      13138.174    
   2901000   700.08674     -3731835.1      0             -3685368.7      11753.721    
   2902000   700.0488      -3731798.4      0             -3685334.5      12270.473    
   2903000   700.1629      -3731974.4      0             -3685502.9      13780.492    
   2904000   699.67219     -3731963.6      0             -3685524.7      13698.425    
   2905000   700.46424     -3731869.9      0             -3685378.4      12099.001    
   2906000   699.52927     -3731755.2      0             -3685325.8      11740.219    
   2907000   699.54455     -3731857.8      0             -3685427.4      13221.243    
   2908000   699.2707      -3731968.6      0             -3685556.4      14052.993    
   2909000   701.36692     -3731942        0             -3685390.6      12902.641    
   2910000   700.86138     -3731853.7      0             -3685335.8      11654.496    
   2911000   699.89611     -3731866.5      0             -3685412.7      12484.451    
   2912000   700.68632     -3731941.4      0             -3685435.2      13905.984    
   2913000   701.55105     -3732030.1      0             -3685466.5      13479.054    
   2914000   700.16296     -3731884.2      0             -3685412.7      11938.281    
   2915000   698.85589     -3731814.9      0             -3685430.2      11952.291    
   2916000   699.64318     -3731845.1      0             -3685408.2      13547.652    
   2917000   698.79366     -3731958.5      0             -3685577.9      13980.186    
   2918000   699.60132     -3731915.9      0             -3685481.7      12500.134    
   2919000   699.49341     -3731727.1      0             -3685300        11653.017    
   2920000   699.11087     -3731877.8      0             -3685476.2      12716.024    
   2921000   700.26476     -3731950.8      0             -3685472.6      14041.198    
   2922000   700.11973     -3732000.6      0             -3685532        13215.087    
   2923000   700.76768     -3731849.6      0             -3685338        11863.011    
   2924000   699.73484     -3731950        0             -3685507        12166.268    
   2925000   700.11623     -3732016.2      0             -3685547.8      13674.858    
   2926000   699.84102     -3731798.7      0             -3685348.6      13815.023    
   2927000   701.53449     -3731821.5      0             -3685259        12237.888    
   2928000   699.8994      -3731898.2      0             -3685444.2      11660.81     
   2929000   698.86389     -3731916.5      0             -3685531.2      13117.012    
   2930000   699.98465     -3731930.5      0             -3685470.8      14079.973    
   2931000   699.21339     -3731920.8      0             -3685512.3      12990.158    
   2932000   699.27081     -3731738.2      0             -3685326        11691.679    
   2933000   700.37199     -3731871.7      0             -3685386.3      12422.386    
   2934000   700.48969     -3732054.6      0             -3685561.4      13806.893    
   2935000   700.43392     -3731933.8      0             -3685444.4      13559.172    
   2936000   700.16971     -3731827.4      0             -3685355.5      12070.423    
   2937000   700.04138     -3732002.2      0             -3685538.7      11870.778    
   2938000   700.31916     -3731989.9      0             -3685508.1      13367.695    
   2939000   699.80018     -3731886.2      0             -3685438.8      13994.14     
   2940000   700.44569     -3732049.3      0             -3685559.1      12601.834    
   2941000   700.37577     -3731760.2      0             -3685274.6      11617.127    
   2942000   700.32574     -3731890.6      0             -3685408.4      12671.238    
   2943000   699.23162     -3732001.6      0             -3685591.9      13995.051    
   2944000   699.80131     -3731906.6      0             -3685459.1      13318.73     
   2945000   700.06037     -3731861.7      0             -3685397.1      11942.268    
   2946000   700.02616     -3731851.6      0             -3685389.2      12114.111    
   2947000   700.08859     -3731880.8      0             -3685414.2      13635.647    
   2948000   699.1703      -3731937.2      0             -3685531.6      13802.18     
   2949000   701.21884     -3731854.6      0             -3685313.1      12353.278    
   2950000   699.91285     -3731867        0             -3685412.1      11704.441    
   2951000   700.95974     -3731786.4      0             -3685262        13020.748    
   2952000   699.09198     -3731947.4      0             -3685547        14090.317    
   2953000   700.76114     -3731910.5      0             -3685399.3      13050.601    
   2954000   699.04534     -3731796        0             -3685398.7      11722.63     
   2955000   700.21747     -3731878.4      0             -3685403.3      12381.218    
   2956000   699.43973     -3731790.9      0             -3685367.4      13796.193    
   2957000   698.81103     -3731983.7      0             -3685602        13636.802    
   2958000   700.35205     -3731866.6      0             -3685382.6      12098.765    
   2959000   699.44146     -3731844.9      0             -3685421.4      11825.527    
   2960000   700.30111     -3731922.9      0             -3685442.2      13318.101    
   2961000   700.25633     -3731909.2      0             -3685431.5      14011.815    
   2962000   700.59064     -3731932.5      0             -3685432.6      12699.68     
   2963000   701.21879     -3731888.7      0             -3685347.1      11610.586    
   2964000   701.0803      -3731876.9      0             -3685344.6      12616.134    
   2965000   698.66772     -3731859.7      0             -3685487.5      13920.706    
   2966000   699.04974     -3731893.4      0             -3685495.8      13347.373    
   2967000   699.60402     -3731816.1      0             -3685381.7      12003.481    
   2968000   700.41766     -3731680.9      0             -3685192.5      12052.391    
   2969000   699.33423     -3731867.3      0             -3685450.8      13560.919    
   2970000   699.06282     -3731882.5      0             -3685484.1      13856.561    
   2971000   698.37432     -3731773.6      0             -3685420.9      12447.155    
   2972000   698.55665     -3731866.6      0             -3685501.7      11637.28     
   2973000   699.52892     -3731878.2      0             -3685448.8      12894.366    
   2974000   699.43992     -3731966.3      0             -3685542.8      14056.293    
   2975000   700.81195     -3731893.9      0             -3685379.4      13153.486    
   2976000   700.96766     -3731813.6      0             -3685288.7      11815.797    
   2977000   701.93581     -3731949.6      0             -3685360.4      12350.197    
   2978000   702.20273     -3731898.2      0             -3685291.3      13730.145    
   2979000   699.94196     -3732014.9      0             -3685558.1      13626.98     
   2980000   699.98195     -3731868.4      0             -3685408.9      12197.966    
   2981000   700.91514     -3731892.5      0             -3685371.1      11818.788    
   2982000   699.85856     -3731968.5      0             -3685517.2      13206.905    
   2983000   700.87221     -3732063.4      0             -3685544.9      14005.543    
   2984000   701.37443     -3731868.4      0             -3685316.5      12870.811    
   2985000   698.97646     -3731725.9      0             -3685333.2      11682.277    
   2986000   699.83105     -3731874.6      0             -3685425.2      12525.971    
   2987000   700.598       -3731974        0             -3685473.7      13848.693    
   2988000   700.41539     -3731947.1      0             -3685458.8      13413.091    
   2989000   699.82817     -3731955.6      0             -3685506.4      12020.022    
   2990000   699.37765     -3731805.8      0             -3685386.5      12031.544    
   2991000   701.00765     -3731990.3      0             -3685462.7      13467.214    
   2992000   699.42517     -3731910        0             -3685487.5      13902.593    
   2993000   701.09272     -3731886.2      0             -3685353        12535.041    
   2994000   698.65631     -3731765.9      0             -3685394.4      11663.733    
   2995000   701.07132     -3731896.3      0             -3685364.6      12851.455    
   2996000   700.91237     -3731981.6      0             -3685460.4      14006.991    
   2997000   699.91417     -3731915.8      0             -3685460.8      13230.747    
   2998000   697.79419     -3731885.6      0             -3685571.4      11854.066    
   2999000   700.66052     -3731855.6      0             -3685351.1      12254.821    
   3000000   699.13011     -3731945.3      0             -3685542.4      13586.523    
   3001000   698.95794     -3731950.5      0             -3685559        13685.319    
   3002000   701.87627     -3731790.6      0             -3685205.4      12270.753    
   3003000   701.28931     -3731747.1      0             -3685200.8      11857.014    
   3004000   700.55981     -3731953        0             -3685455.2      13099.563    
   3005000   699.49865     -3731952.9      0             -3685525.5      14003.754    
   3006000   699.36626     -3731977.2      0             -3685558.6      12866.326    
   3007000   699.99348     -3731815.2      0             -3685355        11695.305    
   3008000   698.79591     -3731875.1      0             -3685494.3      12442.433    
   3009000   701.07703     -3731999.1      0             -3685467        13775.927    
   3010000   699.85382     -3732008.4      0             -3685557.4      13468.171    
   3011000   700.48569     -3731851.1      0             -3685358.2      12153.227    
   3012000   699.34511     -3731899        0             -3685481.8      11939.26     
   3013000   700.70588     -3731922.7      0             -3685415.2      13416.271    
   3014000   699.63929     -3731902.9      0             -3685466.1      13902.052    
   3015000   700.33156     -3731898.1      0             -3685415.4      12607.834    
   3016000   699.79111     -3731820.3      0             -3685373.6      11685.379    
   3017000   700.44449     -3731863.9      0             -3685373.7      12759.025    
   3018000   699.59275     -3731915.9      0             -3685482.3      13965.842    
   3019000   700.71559     -3731922        0             -3685413.9      13326.63     
   3020000   700.77795     -3731853.9      0             -3685341.6      11940.792    
   3021000   700.00535     -3731860        0             -3685398.9      12145.174    
   3022000   700.11558     -3731945.8      0             -3685477.4      13561.037    
   3023000   700.75475     -3731824.1      0             -3685313.3      13785.61     
   3024000   700.51405     -3731836.6      0             -3685341.8      12349.439    
   3025000   699.91149     -3731834.5      0             -3685379.7      11800.55     
   3026000   700.07474     -3731892.1      0             -3685426.5      13016.011    
   3027000   700.68372     -3731960.9      0             -3685454.9      14002.108    
   3028000   699.78995     -3731975.7      0             -3685529        12978.324    
   3029000   698.99864     -3731835        0             -3685440.8      11736.541    
   3030000   700.33378     -3731926.7      0             -3685443.9      12357.639    
   3031000   700.35184     -3731995.1      0             -3685511.1      13721.858    
   3032000   698.12825     -3731808.7      0             -3685472.3      13609.448    
   3033000   699.33272     -3731789        0             -3685372.7      12212.754    
   3034000   701.34294     -3731808.7      0             -3685258.9      11934.525    
   3035000   699.49407     -3731988        0             -3685560.9      13267.37     
   3036000   698.28969     -3731926.1      0             -3685579        13933.137    
   3037000   701.23067     -3731768.1      0             -3685225.8      12771.932    
   3038000   699.7184      -3731830.1      0             -3685388.2      11712.176    
   3039000   699.30052     -3731949.8      0             -3685535.5      12584.356    
   3040000   700.10317     -3731993        0             -3685525.5      13948.778    
   3041000   698.68047     -3731909.9      0             -3685536.8      13379.582    
   3042000   698.84234     -3731812.3      0             -3685428.5      11989.022    
   3043000   699.2004      -3731774        0             -3685366.4      12036.556    
   3044000   699.71469     -3731907.7      0             -3685465.9      13499.757    
   3045000   700.48161     -3732015.6      0             -3685523        13788.714    
   3046000   699.82187     -3731944.2      0             -3685495.4      12447.68     
   3047000   699.58779     -3731789.5      0             -3685356.2      11752.994    
   3048000   699.95696     -3732018.5      0             -3685560.7      12841.718    
   3049000   699.98843     -3731969.1      0             -3685509.2      14005.132    
   3050000   700.61512     -3731939        0             -3685437.5      13123.434    
   3051000   700.27029     -3731829.7      0             -3685351.1      11773.718    
   3052000   699.21902     -3731832.6      0             -3685423.8      12301.862    
   3053000   700.29875     -3731938.5      0             -3685458.1      13647.964    
   3054000   700.35297     -3731878.8      0             -3685394.7      13659.783    
   3055000   700.60927     -3731879.6      0             -3685378.5      12241.944    
   3056000   699.10044     -3731890.1      0             -3685489.2      11855.243    
   3057000   699.31445     -3731940        0             -3685524.9      13181.918    
   3058000   700.26483     -3731969.9      0             -3685491.7      13929.743    
   3059000   698.53115     -3731885.7      0             -3685522.5      12777.114    
   3060000   700.51905     -3731801.9      0             -3685306.8      11642.891    
   3061000   699.84652     -3731887.4      0             -3685437        12532.951    
   3062000   700.07411     -3731888        0             -3685422.4      13873.631    
   3063000   699.70679     -3731894.1      0             -3685452.9      13459.913    
   3064000   701.42862     -3731837.2      0             -3685281.8      12113.117    
   3065000   701.23875     -3731870.2      0             -3685327.3      12002.113    
   3066000   699.77146     -3731948.9      0             -3685503.4      13387.624    
   3067000   701.25795     -3732012.2      0             -3685468.1      13813.14     
   3068000   699.24443     -3731873.4      0             -3685462.9      12575.14     
   3069000   700.84319     -3731898        0             -3685381.4      11740.8      
   3070000   699.15945     -3731913.9      0             -3685509.1      12831.324    
   3071000   700.43687     -3731967.6      0             -3685478        13990.159    
   3072000   699.68662     -3731834.7      0             -3685394.8      13242.364    
   3073000   699.96696     -3731797.7      0             -3685339.3      11841.674    
   3074000   700.20506     -3731896.1      0             -3685421.9      12158.442    
   3075000   700.81126     -3732004.2      0             -3685489.7      13505.699    
   3076000   701.22434     -3731954.6      0             -3685412.7      13702.614    
   3077000   700.62053     -3731899.5      0             -3685397.7      12358.515    
   3078000   699.63461     -3731809        0             -3685372.6      11871.416    
   3079000   699.80891     -3731831        0             -3685383.1      13075.014    
   3080000   700.36966     -3731912.7      0             -3685427.5      13948.75     
   3081000   699.52231     -3731873.6      0             -3685444.7      12927.923    
   3082000   700.86003     -3731765.4      0             -3685247.7      11753.497    
   3083000   699.74663     -3731851        0             -3685407.2      12442.542    
   3084000   700.78619     -3731962.8      0             -3685450        13818.658    
   3085000   699.95104     -3731913.7      0             -3685456.2      13576.232    
   3086000   700.0091      -3731907.7      0             -3685446.4      12184.236    
   3087000   699.6358      -3731803.7      0             -3685367.2      11971.422    
   3088000   700.18302     -3731881.4      0             -3685408.6      13288.59     
   3089000   701.47755     -3731850.7      0             -3685292        13897.865    
   3090000   700.20069     -3731865.7      0             -3685391.7      12691.587    
   3091000   697.6152      -3731784.6      0             -3685482.3      11766.67     
   3092000   700.23656     -3732032.4      0             -3685556        12674.966    
   3093000   700.33994     -3732073.5      0             -3685590.3      13872.834    
   3094000   699.31017     -3731924.7      0             -3685509.8      13247.293    
   3095000   698.98843     -3731826.4      0             -3685432.9      11894.271    
   3096000   699.84212     -3731834.6      0             -3685384.4      12111.114    
   3097000   700.03022     -3731851.2      0             -3685388.5      13479.41     
   3098000   700.67095     -3731998.3      0             -3685493.1      13764.02     
   3099000   700.72545     -3731911.6      0             -3685402.8      12451.633    
   3100000   699.98877     -3731814        0             -3685354.1      11853.456    
Loop time of 136883 on 2048 procs for 3000000 steps with 513480 atoms

Performance: 1.894 ns/day, 12.674 hours/ns, 21.916 timesteps/s, 11.254 Matom-step/s
99.6% CPU use with 64 MPI tasks x 32 OpenMP threads

MPI task timing breakdown:
Section |  min time  |  avg time  |  max time  |%varavg| %total
---------------------------------------------------------------
Pair    | 4.9125     | 48576      | 1.2387e+05 |25705.5 | 35.49
Neigh   | 0.051167   | 171.08     | 458.1      |1569.8 |  0.12
Comm    | 2.7666     | 18418      | 1.0727e+05 |25039.7 | 13.46
Output  | 5.5956     | 11.255     | 17.377     | 105.6 |  0.01
Modify  | 1120.2     | 69031      | 1.3606e+05 |25489.1 | 50.43
Other   |            | 676.1      |            |       |  0.49

Nlocal:        8023.12 ave       20111 max           0 min
Histogram: 32 0 8 0 0 0 0 0 0 24
Nghost:        26744.3 ave       64209 max           0 min
Histogram: 32 0 0 8 0 0 0 0 0 24
Neighs:              0 ave           0 max           0 min
Histogram: 64 0 0 0 0 0 0 0 0 0

Total # of neighbors = 0
Ave neighs/atom = 0
Neighbor list builds = 1141
Dangerous builds = 0
Total wall time: 39:18:03
