LAMMPS (7 Feb 2024 - Development - patch_7Feb2024_update1-147-g4d89741d8c)
  using 32 OpenMP thread(s) per MPI task
# Initialization
units       metal
dimension   3
boundary    p p p     # Periodic in x, y and free in z direction
atom_style  atomic

# User variables
variable annealtemp equal 1400
variable strikeangle equal 30
variable strikespeed equal 5256.86052036

# Computed variables
variable posx equal 42.885349000000005+(5*cos((90-${strikeangle}))*PI/180)
variable posx equal 42.885349000000005+(5*cos((90-30))*PI/180)
variable posz equal 710+(5*sin((90-${strikeangle})*PI/180))
variable posz equal 710+(5*sin((90-30)*PI/180))
variable posy equal 34.3068485
variable velx equal ${strikespeed}*cos((90-${strikeangle})*PI/180)
variable velx equal 5256.86052036*cos((90-${strikeangle})*PI/180)
variable velx equal 5256.86052036*cos((90-30)*PI/180)
variable velz equal ${strikespeed}*sin((90-${strikeangle})*PI/180)
variable velz equal 5256.86052036*sin((90-${strikeangle})*PI/180)
variable velz equal 5256.86052036*sin((90-30)*PI/180)

# Create Atom Structure (assuming diamond cubic lattice)
lattice     diamond 3.567 orient x 1 1 0 orient y 0 0 -1 orient z -1 1 0  # Diamond lattice constant for carbon in Angstroms with 1 0 0 x direction orientation.
Lattice spacing in x,y,z = 5.0444998 3.567 5.0444998
region      box block 0 20 0 20 0 200 units lattice
create_box  2 box
Created orthogonal box = (0 0 0) to (100.89 71.34 1008.9)
  2 by 2 by 16 MPI processor grid
region      slab block 0 20 0 20 60 140 units lattice
create_atoms 1 region slab
Created 513480 atoms
  using lattice units in orthogonal box = (0 0 0) to (100.89 71.34 1008.9)
  create_atoms CPU = 0.008 seconds

# Add tin atom
create_atoms 2 single ${posx} ${posy} ${posz} units lattice  # Position tin atom above the slab
create_atoms 2 single 42.8022352882651 ${posy} ${posz} units lattice  
create_atoms 2 single 42.8022352882651 34.3068485 ${posz} units lattice  
create_atoms 2 single 42.8022352882651 34.3068485 714.330127018922 units lattice  
Created 0 atoms
  using lattice units in orthogonal box = (0 0 0) to (100.89 71.34 1008.9)
  create_atoms CPU = 0.000 seconds

# Define Potential
pair_style      hybrid tersoff lj/cut 2.5  # tersoff
pair_coeff      * * tersoff /home/stovey/work/projects/quantum-lab/ballistic-diamond/lammps/potentials/SiC.tersoff C C # You may need to adjust the file name depending on your LAMMPS distribution
Reading tersoff potential file /home/stovey/work/projects/quantum-lab/ballistic-diamond/lammps/potentials/SiC.tersoff with DATE: 2011-04-26
pair_coeff      1 2 lj/cut 0.01058 3.664 12.824 # Mixed LJ parameters for C-Sn interactions, adjust as necessary
pair_coeff      2 2 lj/cut 0.01029 3.55  # Example LJ parameters for Sn-Sn, adjust as needed


# Settings for carbon
mass        1 12.01
# Settings for tin
mass        2 118.71  # Mass of tin atom

# Create the atom groups
group           diamond type 1
513480 atoms in group diamond
group           tin type 2
0 atoms in group tin

velocity    diamond create 20 4928459 rot yes dist gaussian  # Initialize velocities
velocity    tin set 0.0 0.0 0.0 units box # Freeze for the warmup

# --------------------- #
# Diamond Equilibration #
# --------------------- #

# Define settings for dynamics
fix diamondNVT all nvt temp 300 300 $(100.0*dt)
fix diamondNVT all nvt temp 300 300 0.10000000000000000555
fix tinfreeze tin setforce 0.0 0.0 0.0

# Thermo output
thermo      1000                # Output thermo info every 1000 steps

# Dump settings for MD
dump equilibrate all custom 10000 /work/stovey/ballistic-diamond/tersoff-sweep/velocity-${strikespeed}/temperature-${annealtemp}/angle-${strikeangle}/equilibration.lammpstraj id type x y z vx vy vz
dump equilibrate all custom 10000 /work/stovey/ballistic-diamond/tersoff-sweep/velocity-5256.86052036/temperature-${annealtemp}/angle-${strikeangle}/equilibration.lammpstraj id type x y z vx vy vz
dump equilibrate all custom 10000 /work/stovey/ballistic-diamond/tersoff-sweep/velocity-5256.86052036/temperature-1400/angle-${strikeangle}/equilibration.lammpstraj id type x y z vx vy vz
dump equilibrate all custom 10000 /work/stovey/ballistic-diamond/tersoff-sweep/velocity-5256.86052036/temperature-1400/angle-30/equilibration.lammpstraj id type x y z vx vy vz
dump_modify equilibrate sort id

timestep 0.002

# Run Simulation 100 ps equilibration
run         50000              # Number of timesteps to simulate
Neighbor list info ...
  update: every = 1 steps, delay = 0 steps, check = yes
  max neighbors/atom: 2000, page size: 100000
  master list distance cutoff = 14.824
  ghost atom cutoff = 14.824
  binsize = 7.412, bins = 14 10 137
  4 neighbor lists, perpetual/occasional/extra = 4 0 0
  (1) pair tersoff, perpetual, skip from (4)
      attributes: full, newton on, cut 4.1
      pair build: skip
      stencil: none
      bin: none
  (2) pair lj/cut, perpetual, skip from (3)
      attributes: half, newton on
      pair build: skip
      stencil: none
      bin: none
  (3) neighbor class addition, perpetual
      attributes: half, newton on
      pair build: half/bin/atomonly/newton
      stencil: half/bin/3d
      bin: standard
  (4) neighbor class addition, perpetual
      attributes: full, newton on, cut 4.1
      pair build: full/bin/atomonly
      stencil: full/bin/3d
      bin: standard
Per MPI rank memory allocation (min/avg/max) = 67.92 | 108.7 | 169.7 Mbytes
   Step          Temp          E_pair         E_mol          TotEng         Press     
         0   20            -3778559.3      0             -3777231.9     -1843.8855    
      1000   158.7318      -3767833.1      0             -3757297.6      4732.5254    
      2000   308.32461     -3757960.2      0             -3737496        1220.7739    
      3000   303.58079     -3758316.3      0             -3738166.9      9049.0075    
      4000   297.53142     -3758261.4      0             -3738513.6      1721.4092    
      5000   296.81878     -3758549.7      0             -3738849.2      8190.5103    
      6000   299.41201     -3758390.6      0             -3738517.9      3020.0053    
      7000   301.46244     -3758392.1      0             -3738383.3      6660.2581    
      8000   300.7891      -3758306.8      0             -3738342.8      4885.8495    
      9000   299.97689     -3758423.6      0             -3738513.4      4746.8541    
     10000   298.33745     -3758480.3      0             -3738679        6977.4554    
     11000   299.24628     -3758340.6      0             -3738478.9      2669.8721    
     12000   299.80703     -3758374.8      0             -3738475.9      9638.7932    
     13000   300.52322     -3758115        0             -3738168.6      917.46112    
     14000   300.48956     -3758341.2      0             -3738397        9555.0518    
     15000   300.2714      -3758182.9      0             -3738253.2      1476.2613    
     16000   299.97167     -3758410.5      0             -3738500.6      8808.1763    
     17000   299.51415     -3758347.7      0             -3738468.2      2603.0261    
     18000   299.66809     -3758517        0             -3738627.3      7334.1312    
     19000   300.18039     -3758373.3      0             -3738449.6      4279.0681    
     20000   301.4808      -3758379.5      0             -3738369.5      5499.1273    
     21000   300.70681     -3758425.4      0             -3738466.8      6227.0775    
     22000   299.09492     -3758435.4      0             -3738583.7      3261.2161    
     23000   298.54703     -3758504.4      0             -3738689.2      8182.2642    
     24000   299.79924     -3758174        0             -3738275.6      1125.1983    
     25000   301.23692     -3758285.8      0             -3738292        9870.8339    
     26000   301.47235     -3758162        0             -3738152.5      1188.7775    
     27000   299.23247     -3758410.6      0             -3738549.9      9131.2577    
     28000   298.63082     -3758289.7      0             -3738468.9      2037.6241    
     29000   300.28789     -3758458.5      0             -3738527.6      7975.4617    
     30000   301.13317     -3758320.7      0             -3738333.8      3638.6494    
     31000   300.94094     -3758441.7      0             -3738467.5      6160.051     
     32000   299.72092     -3758491.9      0             -3738598.8      5429.8008    
     33000   299.46813     -3758475.3      0             -3738598.9      4234.1216    
     34000   300.24443     -3758470.8      0             -3738542.9      7520.242     
     35000   300.82162     -3758224.3      0             -3738258.1      2285.2832    
     36000   300.79743     -3758382.6      0             -3738417.9      9689.9309    
     37000   299.83631     -3758191.2      0             -3738290.3      901.74558    
     38000   299.14459     -3758393.8      0             -3738538.9      9497.0533    
     39000   299.94504     -3758194.3      0             -3738286.3      1719.4827    
     40000   301.03642     -3758380.1      0             -3738399.6      8579.031     
     41000   300.11372     -3758296.5      0             -3738377.3      2876.1254    
     42000   299.41601     -3758496.9      0             -3738624        6898.7245    
     43000   299.70205     -3758467.7      0             -3738575.8      4695.7244    
     44000   300.37091     -3758400.5      0             -3738464.2      5005.5189    
     45000   300.83737     -3758426.4      0             -3738459.1      6736.5796    
     46000   299.90315     -3758351.6      0             -3738446.4      3083.1743    
     47000   299.97854     -3758499.5      0             -3738589.2      8608.0421    
     48000   300.0457      -3758191.7      0             -3738277        1041.3619    
     49000   300.37942     -3758322.6      0             -3738385.7      9900.5588    
     50000   300.26299     -3758150.1      0             -3738220.9      1295.6764    
Loop time of 2313.06 on 2048 procs for 50000 steps with 513480 atoms

Performance: 3.735 ns/day, 6.425 hours/ns, 21.616 timesteps/s, 11.100 Matom-step/s
99.6% CPU use with 64 MPI tasks x 32 OpenMP threads

MPI task timing breakdown:
Section |  min time  |  avg time  |  max time  |%varavg| %total
---------------------------------------------------------------
Pair    | 0.075636   | 810.44     | 2066.1     |3327.7 | 35.04
Neigh   | 0.0024858  | 6.4647     | 17.389     | 305.9 |  0.28
Comm    | 0.044048   | 315.75     | 1805.1     |3224.9 | 13.65
Output  | 0.090298   | 0.18535    | 0.28804    |  13.8 |  0.01
Modify  | 21.522     | 1169.7     | 2299.1     |3302.1 | 50.57
Other   |            | 10.49      |            |       |  0.45

Nlocal:        8023.12 ave       20144 max           0 min
Histogram: 32 0 8 0 0 0 0 0 0 24
Nghost:        26735.4 ave       64185 max           0 min
Histogram: 32 0 0 8 0 0 0 0 0 24
Neighs:              0 ave           0 max           0 min
Histogram: 64 0 0 0 0 0 0 0 0 0

Total # of neighbors = 0
Ave neighs/atom = 0
Neighbor list builds = 43
Dangerous builds = 0
undump equilibrate
# -------------------- #
# Collision simulation #
# -------------------- #

# Define settings for dynamics
velocity tin set -${velx} 0.0 -${velz} units box # Shoot the tin atom towards the diamond
velocity tin set -2628.43026018 0.0 -${velz} units box 
velocity tin set -2628.43026018 0.0 -4552.57475478324 units box 
unfix tinfreeze

# Thermo output
thermo      1000                # Output thermo info every 1000 steps

# Dump settings for MD
dump collision all custom 100 /work/stovey/ballistic-diamond/tersoff-sweep/velocity-${strikespeed}/temperature-${annealtemp}/angle-${strikeangle}/collision.lammpstraj id type x y z vx vy vz
dump collision all custom 100 /work/stovey/ballistic-diamond/tersoff-sweep/velocity-5256.86052036/temperature-${annealtemp}/angle-${strikeangle}/collision.lammpstraj id type x y z vx vy vz
dump collision all custom 100 /work/stovey/ballistic-diamond/tersoff-sweep/velocity-5256.86052036/temperature-1400/angle-${strikeangle}/collision.lammpstraj id type x y z vx vy vz
dump collision all custom 100 /work/stovey/ballistic-diamond/tersoff-sweep/velocity-5256.86052036/temperature-1400/angle-30/collision.lammpstraj id type x y z vx vy vz
dump_modify collision sort id

timestep 0.0001
# Run Simulation 5 ps collision
run         50000              # Number of timesteps to simulate
Per MPI rank memory allocation (min/avg/max) = 67.92 | 108.7 | 169.7 Mbytes
   Step          Temp          E_pair         E_mol          TotEng         Press     
     50000   300.26299     -3758150.1      0             -3738220.9      1295.6764    
     51000   305.78216     -3758965.5      0             -3738670        835.4038     
     52000   299.85251     -3759176.3      0             -3739274.4      586.11701    
     53000   297.16711     -3759350.7      0             -3739627        560.33733    
     54000   297.70849     -3759390.2      0             -3739630.5      830.44605    
     55000   299.65739     -3759245        0             -3739356.1      1522.7027    
     56000   302.33555     -3759180.6      0             -3739113.9      2252.4804    
     57000   302.27261     -3759192.9      0             -3739130.4      2782.3825    
     58000   300.08139     -3759317.4      0             -3739400.3      3059.189     
     59000   298.85886     -3759505.5      0             -3739669.5      3529.3419    
     60000   298.60942     -3759570.3      0             -3739750.9      4287.5664    
     61000   299.05674     -3759468.7      0             -3739619.6      4784.4016    
     62000   300.89884     -3759395.6      0             -3739424.2      5283.8166    
     63000   301.55244     -3759372.9      0             -3739358.2      5881.8979    
     64000   301.06878     -3759469.9      0             -3739487.3      6279.4535    
     65000   298.78149     -3759512.5      0             -3739681.6      6889.637     
     66000   298.31386     -3759558.7      0             -3739758.9      7334.6211    
     67000   299.20844     -3759505        0             -3739645.9      7866.5593    
     68000   300.47733     -3759389.5      0             -3739446.1      8251.0252    
     69000   301.16682     -3759315.2      0             -3739326        8680.2253    
     70000   300.91603     -3759349.6      0             -3739377.1      8940.6649    
     71000   299.81646     -3759433.9      0             -3739534.4      9321.6923    
     72000   298.42319     -3759452.4      0             -3739645.3      9528.1369    
     73000   299.71036     -3759503.5      0             -3739611        9778.3457    
     74000   299.97133     -3759375.3      0             -3739465.5      9936.6832    
     75000   301.31719     -3759346.1      0             -3739346.9      9847.5647    
     76000   301.25996     -3759364        0             -3739368.7      9491.2615    
     77000   299.8773      -3759423.1      0             -3739519.5      8776.0978    
     78000   298.6885      -3759489.8      0             -3739665.1      8076.4797    
     79000   298.85203     -3759518.7      0             -3739683.2      7634.8857    
     80000   299.83923     -3759476.3      0             -3739575.2      7317.0353    
     81000   301.22239     -3759444.5      0             -3739451.7      6699.8333    
     82000   300.93322     -3759404        0             -3739430.4      5996.6645    
     83000   300.69535     -3759485.8      0             -3739528        5516.7689    
     84000   299.11487     -3759501.7      0             -3739648.8      4982.7519    
     85000   298.97749     -3759522.5      0             -3739678.7      4451.4504    
     86000   299.37558     -3759449.3      0             -3739579        4012.7544    
     87000   300.85797     -3759391.5      0             -3739422.9      3418.7045    
     88000   301.03662     -3759301.5      0             -3739321        2982.1923    
     89000   300.2021      -3759254.7      0             -3739329.5      2485.3705    
     90000   299.41987     -3759281.8      0             -3739408.6      2158.8035    
     91000   299.65961     -3759343.7      0             -3739454.6      1756.0131    
     92000   299.48557     -3759280        0             -3739402.4      1495.7323    
     93000   300.19603     -3759199.7      0             -3739275        1090.7407    
     94000   301.09176     -3759153.9      0             -3739169.8      913.77774    
     95000   300.9191      -3759140.6      0             -3739167.9      673.43142    
     96000   300.36011     -3759194.8      0             -3739259.2      570.30216    
     97000   299.20378     -3759217.2      0             -3739358.4      689.42653    
     98000   299.25554     -3759254.4      0             -3739392.1      1076.306     
     99000   300.05366     -3759275.2      0             -3739359.9      1790.7032    
    100000   300.62261     -3759279.2      0             -3739326.2      2437.0734    
Loop time of 2301.15 on 2048 procs for 50000 steps with 513480 atoms

Performance: 0.188 ns/day, 127.842 hours/ns, 21.728 timesteps/s, 11.157 Matom-step/s
99.6% CPU use with 64 MPI tasks x 32 OpenMP threads

MPI task timing breakdown:
Section |  min time  |  avg time  |  max time  |%varavg| %total
---------------------------------------------------------------
Pair    | 0.079887   | 803.58     | 2043.4     |3307.5 | 34.92
Neigh   | 8.9735e-05 | 0.29729    | 0.79326    |  65.5 |  0.01
Comm    | 0.042878   | 309.87     | 1761       |3175.9 | 13.47
Output  | 7.8486     | 17.378     | 27.534     | 142.5 |  0.76
Modify  | 19.553     | 1149.7     | 2260.2     |3275.2 | 49.96
Other   |            | 20.33      |            |       |  0.88

Nlocal:        8023.12 ave       20072 max           0 min
Histogram: 32 0 8 0 0 0 0 0 0 24
Nghost:        26736.8 ave       64161 max           0 min
Histogram: 32 0 0 8 0 0 0 0 0 24
Neighs:              0 ave           0 max           0 min
Histogram: 64 0 0 0 0 0 0 0 0 0

Total # of neighbors = 0
Ave neighs/atom = 0
Neighbor list builds = 2
Dangerous builds = 0
undump collision
# -------------------- #
# Annealing Simulation #
# -------------------- #

# Define settings for dynamics
unfix diamondNVT
fix diamondNVT2 all nvt temp ${annealtemp} ${annealtemp} $(100.0*dt)
fix diamondNVT2 all nvt temp 1400 ${annealtemp} $(100.0*dt)
fix diamondNVT2 all nvt temp 1400 1400 $(100.0*dt)
fix diamondNVT2 all nvt temp 1400 1400 0.010000000000000000208

# Thermo output
thermo      1000                # Output thermo info every 1000 steps

# Dump settings for MD
dump anneal all custom 10000 /work/stovey/ballistic-diamond/tersoff-sweep/velocity-${strikespeed}/temperature-${annealtemp}/angle-${strikeangle}/annealing.lammpstraj id type x y z vx vy vz
dump anneal all custom 10000 /work/stovey/ballistic-diamond/tersoff-sweep/velocity-5256.86052036/temperature-${annealtemp}/angle-${strikeangle}/annealing.lammpstraj id type x y z vx vy vz
dump anneal all custom 10000 /work/stovey/ballistic-diamond/tersoff-sweep/velocity-5256.86052036/temperature-1400/angle-${strikeangle}/annealing.lammpstraj id type x y z vx vy vz
dump anneal all custom 10000 /work/stovey/ballistic-diamond/tersoff-sweep/velocity-5256.86052036/temperature-1400/angle-30/annealing.lammpstraj id type x y z vx vy vz
dump_modify anneal sort id

timestep 0.001
# Run Simulation 3 ns annealing
run        3000000              # Number of timesteps to simulate
Per MPI rank memory allocation (min/avg/max) = 67.92 | 108.7 | 169.7 Mbytes
   Step          Temp          E_pair         E_mol          TotEng         Press     
    100000   300.62261     -3759279.2      0             -3739326.2      2437.0734    
    101000   1405.318      -3682816.5      0             -3589542.2      40781.363    
    102000   1400.1599     -3684480.6      0             -3591548.7      26522.208    
    103000   1397.9998     -3680181.4      0             -3587392.8      11775.297    
    104000   1398.2072     -3683041.6      0             -3590239.3      17848.942    
    105000   1399.9849     -3684132        0             -3591211.7      39898.631    
    106000   1400.4569     -3684612.1      0             -3591660.5      36725.219    
    107000   1400.3537     -3682040        0             -3589095.2      15059.723    
    108000   1400.922      -3681051        0             -3588068.4      12908.706    
    109000   1398.7073     -3685005.7      0             -3592170.2      31996.315    
    110000   1399.169      -3683584.9      0             -3590718.8      40424.421    
    111000   1400.1248     -3684654.3      0             -3591724.7      26632.985    
    112000   1400.3908     -3680691.3      0             -3587744.1      12125.982    
    113000   1399.2719     -3682613.8      0             -3589740.8      17455.663    
    114000   1401.9667     -3684347.8      0             -3591296        39086.636    
    115000   1400.7166     -3684650.1      0             -3591681.2      37226.991    
    116000   1398.3319     -3682476.9      0             -3589666.3      15437.817    
    117000   1397.2975     -3680806        0             -3588064.1      12802.996    
    118000   1400.1085     -3684800.5      0             -3591871.9      31370.548    
    119000   1401.9118     -3683469.1      0             -3590420.9      40426.261    
    120000   1398.4541     -3684646.6      0             -3591827.9      26798.605    
    121000   1398.966      -3680539.5      0             -3587686.8      12474.623    
    122000   1400.1887     -3682794.9      0             -3589861        16869.721    
    123000   1399.1883     -3684254        0             -3591386.5      38343.918    
    124000   1401.2196     -3684421.1      0             -3591418.9      37749.099    
    125000   1396.0724     -3682408.3      0             -3589747.7      16015.774    
    126000   1399.0327     -3681000.9      0             -3588143.8      12630.634    
    127000   1399.9252     -3684790.6      0             -3591874.3      30530.679    
    128000   1398.9962     -3683692.5      0             -3590837.8      40172.454    
    129000   1400.5105     -3684550.1      0             -3591594.9      27007.656    
    130000   1398.8408     -3680557.1      0             -3587712.8      12858.819    
    131000   1400.7141     -3682660.4      0             -3589691.7      16607.541    
    132000   1400.1899     -3684370.6      0             -3591436.7      37547.82     
    133000   1400.7046     -3684624.8      0             -3591656.8      38051.428    
    134000   1401.6829     -3682574        0             -3589541        16780.799    
    135000   1398.5349     -3680915.4      0             -3588091.3      12476.323    
    136000   1400.243      -3684668.6      0             -3591731.2      29626.768    
    137000   1403.3202     -3683775.6      0             -3590633.9      40170.163    
    138000   1402.0365     -3684683.5      0             -3591627        27257.12     
    139000   1399.6918     -3680863.4      0             -3587962.5      13169.209    
    140000   1399.0618     -3682506.3      0             -3589647.3      16376.747    
    141000   1400.9391     -3684707.9      0             -3591724.2      36848.125    
    142000   1399.1798     -3684414.1      0             -3591547.2      38538.174    
    143000   1399.8914     -3682757.9      0             -3589843.8      17421.926    
    144000   1399.748      -3680618.9      0             -3587714.3      12508.833    
    145000   1400.3024     -3684750.9      0             -3591809.5      28742.008    
    146000   1400.7967     -3683712        0             -3590737.8      40004.041    
    147000   1400.2102     -3684440        0             -3591504.7      27461.872    
    148000   1401.7835     -3680903.6      0             -3587863.9      13593.831    
    149000   1400.799      -3682562        0             -3589587.6      16191.34     
    150000   1400.5189     -3684526.6      0             -3591570.8      36258.112    
    151000   1398.3991     -3684353        0             -3591537.9      38908.418    
    152000   1399.901      -3682835.6      0             -3589920.9      18169.281    
    153000   1399.5118     -3680643.5      0             -3587754.6      12212.585    
    154000   1402.8114     -3684291.1      0             -3591183.2      28189.015    
    155000   1400.0559     -3683765.1      0             -3590840        39824.712    
    156000   1399.6187     -3684557.8      0             -3591661.8      27720.201    
    157000   1399.6122     -3680952.2      0             -3588056.6      13878.752    
    158000   1399.2441     -3682435.9      0             -3589564.8      16130.522    
    159000   1403.5038     -3684546.6      0             -3591392.7      35605.777    
    160000   1398.5287     -3684248.6      0             -3591424.9      39204.021    
    161000   1400.1313     -3683162.4      0             -3590232.4      18846.853    
    162000   1400.3356     -3680601.4      0             -3587657.8      12072.414    
    163000   1396.8029     -3684565.4      0             -3591856.3      27482.107    
    164000   1400.1374     -3683647        0             -3590716.6      39730.582    
    165000   1401.7626     -3684305        0             -3591266.7      28132.47     
    166000   1400.3982     -3681032.3      0             -3588084.5      14207.659    
    167000   1402.0834     -3682531.9      0             -3589472.3      16063.663    
    168000   1400.5152     -3684500.4      0             -3591544.9      35020.764    
    169000   1398.5891     -3684234.7      0             -3591407.1      39315.134    
    170000   1398.4224     -3683241.7      0             -3590425.1      19494.752    
    171000   1401.1323     -3680584.4      0             -3587587.9      11977.88     
    172000   1401.7862     -3684109.3      0             -3591069.4      27032.557    
    173000   1397.8894     -3684005.5      0             -3591224.3      39412.814    
    174000   1400.3456     -3684592.1      0             -3591647.8      28358.885    
    175000   1400.8628     -3681222.4      0             -3588243.8      14498.288    
    176000   1402.0137     -3682378.3      0             -3589323.3      16231.77     
    177000   1401.2848     -3684417.1      0             -3591410.5      34398.252    
    178000   1398.8976     -3684151.5      0             -3591303.3      39463.064    
    179000   1399.5538     -3683315.4      0             -3590423.7      20231.038    
    180000   1402.2589     -3680540.4      0             -3587469.1      11868.56     
    181000   1399.966      -3684095.2      0             -3591176.2      26492.876    
    182000   1401.3128     -3683832.8      0             -3590824.3      39369.269    
    183000   1399.0087     -3684171.2      0             -3591315.7      28905.936    
    184000   1400.0161     -3681446.4      0             -3588524        14780.006    
    185000   1398.1568     -3682262.5      0             -3589463.5      16291.367    
    186000   1401.7717     -3684517.9      0             -3591479        33858.176    
    187000   1399.7942     -3684232.4      0             -3591324.8      39459.569    
    188000   1399.6543     -3683386.1      0             -3590487.8      20854.475    
    189000   1399.8307     -3680614.5      0             -3587704.4      11830.838    
    190000   1400.1654     -3684483.9      0             -3591551.6      25944.904    
    191000   1400.0414     -3683929.7      0             -3591005.7      39223.564    
    192000   1398.5752     -3684189.4      0             -3591362.7      29334.164    
    193000   1400.9584     -3681467.6      0             -3588482.6      15193.805    
    194000   1400.8812     -3682230.9      0             -3589251.1      16412.012    
    195000   1400.8986     -3684257.9      0             -3591276.9      33347.504    
    196000   1399.6306     -3684167.2      0             -3591270.3      39557.7      
    197000   1398.606      -3683671.3      0             -3590842.5      21393.994    
    198000   1401.5558     -3680645.6      0             -3587621        11844.564    
    199000   1397.2868     -3684151.5      0             -3591410.3      25621.367    
    200000   1401.0881     -3683798.5      0             -3590804.9      39149.295    
    201000   1401.9022     -3684112.2      0             -3591064.6      29910.739    
    202000   1399.212      -3681529.2      0             -3588660.2      15478.453    
    203000   1403.0292     -3682020.6      0             -3588898.3      16663.94     
    204000   1401.1941     -3684210.5      0             -3591210        32895.433    
    205000   1398.2617     -3684272.5      0             -3591466.5      39366.52     
    206000   1398.3661     -3683412.8      0             -3590600        22015.406    
    207000   1399.1079     -3680687.8      0             -3587825.7      11851.61     
    208000   1401.5414     -3683960.7      0             -3590937.1      25220.787    
    209000   1400.3567     -3683885.7      0             -3590940.7      38926.901    
    210000   1401.0637     -3684547.8      0             -3591555.9      30197.421    
    211000   1402.0633     -3681863.3      0             -3588805        15757.548    
    212000   1398.262      -3682017        0             -3589211        16753.084    
    213000   1397.2016     -3684397.7      0             -3591662.1      32375.112    
    214000   1400.6587     -3684006.8      0             -3591041.8      39255.842    
    215000   1398.0344     -3683645.2      0             -3590854.3      22446.512    
    216000   1399.6236     -3680576.2      0             -3587679.8      11947.993    
    217000   1400.4532     -3683835.5      0             -3590884.1      24793.392    
    218000   1399.9246     -3683923        0             -3591006.6      38895.55     
    219000   1400.1023     -3684163.9      0             -3591235.8      30584.576    
    220000   1400.9513     -3681750.7      0             -3588766.3      16055.416    
    221000   1400.5008     -3682068.7      0             -3589114.2      16819.393    
    222000   1398.9171     -3684333.1      0             -3591483.7      32010.335    
    223000   1398.9838     -3684059.7      0             -3591205.8      38956.304    
    224000   1400.0275     -3683727.7      0             -3590804.6      22924.36     
    225000   1400.5631     -3680693.4      0             -3587734.8      12005.829    
    226000   1396.6372     -3683775.6      0             -3591077.4      24360.567    
    227000   1398.5367     -3684121.6      0             -3591297.4      38638.098    
    228000   1399.5586     -3684396.5      0             -3591504.5      30853.562    
    229000   1401.4546     -3681969.3      0             -3588951.5      16264.672    
    230000   1395.344      -3682045.5      0             -3589433.2      16869.085    
    231000   1402.0107     -3684243        0             -3591188.2      31668.586    
    232000   1400.4357     -3684104.5      0             -3591154.2      38655.634    
    233000   1399.5446     -3683905.3      0             -3591014.2      23308.326    
    234000   1402.7551     -3680583.3      0             -3587479.1      12256.434    
    235000   1401.0064     -3683643.1      0             -3590655        23882.653    
    236000   1400.2128     -3683877.5      0             -3590942        38555.55     
    237000   1398.5321     -3684234.3      0             -3591410.4      31209.855    
    238000   1401.9475     -3681908.7      0             -3588858.2      16646.708    
    239000   1399.5013     -3681869.3      0             -3588981.1      16961.844    
    240000   1399.3781     -3684210.5      0             -3591330.4      31269.888    
    241000   1399.502      -3684018        0             -3591129.7      38359.698    
    242000   1399.053      -3683901.1      0             -3591042.6      23893.346    
    243000   1400.839      -3680816.8      0             -3587839.8      12410.046    
    244000   1400.7381     -3683747.8      0             -3590777.5      23467.223    
    245000   1397.373      -3684074.4      0             -3591327.4      38370.21     
    246000   1399.0864     -3683982.4      0             -3591121.7      31559.37     
    247000   1397.8807     -3681826.1      0             -3589045.4      16801.965    
    248000   1400.9968     -3681892.1      0             -3588904.6      16928.267    
    249000   1398.6745     -3684188.2      0             -3591354.9      30828.364    
    250000   1402.0724     -3684147.4      0             -3591088.5      38110.162    
    251000   1398.6505     -3683586.7      0             -3590755        24377.45     
    252000   1400.1803     -3680792.3      0             -3587859        12640.737    
    253000   1400.7139     -3683707.3      0             -3590738.6      23085.799    
    254000   1399.9066     -3684086.3      0             -3591171.1      38187.229    
    255000   1401.9988     -3684287.8      0             -3591233.8      31666.422    
    256000   1397.6469     -3682116        0             -3589350.8      16920.026    
    257000   1399.6182     -3682070.6      0             -3589174.6      16807.9      
    258000   1400.0853     -3684364.5      0             -3591437.5      30508.225    
    259000   1401.4341     -3683819.1      0             -3590802.6      37929.784    
    260000   1399.5538     -3683904.4      0             -3591012.7      24648.03     
    261000   1401.0589     -3680916.5      0             -3587924.9      12890.035    
    262000   1401.5153     -3683689.5      0             -3590667.7      22711.647    
    263000   1398.3038     -3683806.1      0             -3590997.4      38074.127    
    264000   1399.4879     -3684205.4      0             -3591318        31894.984    
    265000   1400.7033     -3682021.7      0             -3589053.7      17075.791    
    266000   1399.2922     -3681827.3      0             -3588953        16868.53     
    267000   1400.6239     -3684422.6      0             -3591459.9      30263.09     
    268000   1398.691      -3683955.4      0             -3591121        37483.117    
    269000   1402.1254     -3684068.8      0             -3591006.4      24930.613    
    270000   1399.6223     -3680746.7      0             -3587850.5      13244.752    
    271000   1397.5433     -3683499.4      0             -3590741.1      22388.648    
    272000   1400.8179     -3684116.5      0             -3591140.9      37830.325    
    273000   1398.5155     -3684286.5      0             -3591463.7      32067.025    
    274000   1399.3344     -3682199.3      0             -3589322.2      17130.604    
    275000   1400.2697     -3681763.6      0             -3588824.4      16842.517    
    276000   1400.6246     -3684164.1      0             -3591201.4      30090.919    
    277000   1398.2575     -3683969        0             -3591163.3      37311.843    
    278000   1398.5208     -3683714.2      0             -3590891.1      25239.886    
    279000   1398.6924     -3681021.4      0             -3588186.8      13523.751    
    280000   1401.2187     -3683490.3      0             -3590488.1      22197.057    
    281000   1401.4657     -3684085.9      0             -3591067.3      37568.639    
    282000   1400.5509     -3684179.9      0             -3591222        32362.493    
    283000   1400.1137     -3682289        0             -3589360.1      17311.053    
    284000   1399.8108     -3681909.2      0             -3589000.5      16734.085    
    285000   1404.1172     -3684129.5      0             -3590934.9      29868.738    
    286000   1399.2337     -3684034.7      0             -3591164.2      36999.352    
    287000   1398.1077     -3683852.4      0             -3591056.6      25443.969    
    288000   1400.7377     -3681090.9      0             -3588120.6      13937.255    
    289000   1403.0309     -3683282.8      0             -3590160.3      22027.498    
    290000   1400.0648     -3684147.3      0             -3591221.7      37311.393    
    291000   1400.9821     -3684119.2      0             -3591132.7      32520.612    
    292000   1401.521      -3682291.3      0             -3589269        17477.532    
    293000   1400.5894     -3681907.6      0             -3588947.1      16708.936    
    294000   1401.3024     -3684263.5      0             -3591255.7      29650.646    
    295000   1401.9864     -3683852.7      0             -3590799.5      36959.222    
    296000   1399.2284     -3683945.3      0             -3591075.2      25693.406    
    297000   1402.148      -3681177.2      0             -3588113.3      14252.131    
    298000   1400.2829     -3683205        0             -3590264.9      21874.305    
    299000   1399.5347     -3684020.2      0             -3591129.8      37135.261    
    300000   1397.7483     -3684168        0             -3591396.1      32679.911    
    301000   1400.982      -3682271.3      0             -3589284.8      17634.352    
    302000   1401.6307     -3681562.7      0             -3588533.1      16849.147    
    303000   1399.5217     -3684274        0             -3591384.4      29504.37     
    304000   1400.3579     -3683823.7      0             -3590878.6      36784.155    
    305000   1398.6296     -3684013.9      0             -3591183.5      25899.232    
    306000   1402.4619     -3681276.2      0             -3588191.5      14614.283    
    307000   1400.1714     -3683184.3      0             -3590251.6      21691.063    
    308000   1400.6546     -3684112.3      0             -3591147.5      36795.58     
    309000   1403.0997     -3684130.2      0             -3591003.1      32879.73     
    310000   1399.0667     -3682208.1      0             -3589348.7      17797.346    
    311000   1397.0363     -3681898        0             -3589173.4      16683.71     
    312000   1399.0338     -3684282.5      0             -3591425.3      29321.262    
    313000   1397.7047     -3683724.2      0             -3590955.2      36650.329    
    314000   1401.5609     -3683992.2      0             -3590967.3      26148.185    
    315000   1398.6682     -3681404.4      0             -3588571.5      14904.132    
    316000   1400.0647     -3682974.6      0             -3590049        21548.209    
    317000   1400.5693     -3684219.2      0             -3591260.1      36435.567    
    318000   1399.3531     -3684259.5      0             -3591381.1      32865.82     
    319000   1398.3815     -3682337.2      0             -3589523.3      17981.899    
    320000   1399.2573     -3681825.3      0             -3588953.2      16666.837    
    321000   1399.2522     -3684017.4      0             -3591145.7      29244.468    
    322000   1399.9277     -3683852.4      0             -3590935.9      36552.354    
    323000   1402.6463     -3683936.6      0             -3590839.7      26341.018    
    324000   1397.0841     -3681454.7      0             -3588726.9      15174.261    
    325000   1400.2451     -3683034        0             -3590096.4      21437.712    
    326000   1399.9665     -3683879.3      0             -3590960.2      36246.038    
    327000   1399.503      -3684043.3      0             -3591155        33108.51     
    328000   1399.6633     -3682395.6      0             -3589496.6      18189.279    
    329000   1400.1279     -3681727.6      0             -3588797.8      16665.629    
    330000   1402.3803     -3684056.9      0             -3590977.6      29246.089    
    331000   1402.8886     -3683778.6      0             -3590665.5      36514.866    
    332000   1399.751      -3684073        0             -3591168.2      26378.884    
    333000   1398.982      -3681156.3      0             -3588302.5      15576.708    
    334000   1399.9031     -3683208.2      0             -3590293.3      21229.191    
    335000   1399.311      -3684169.7      0             -3591294.1      35804.348    
    336000   1400.2842     -3684118.6      0             -3591178.5      33198.567    
    337000   1398.6391     -3682546.4      0             -3589715.4      18381.123    
    338000   1400.3275     -3681748.9      0             -3588805.8      16698.124    
    339000   1399.642      -3683939.3      0             -3591041.8      29095.353    
    340000   1401.7923     -3683780.6      0             -3590740.3      36392.238    
    341000   1400.5114     -3684141        0             -3591185.8      26536.902    
    342000   1399.0276     -3681535.6      0             -3588678.9      15671.141    
    343000   1395.2439     -3683088        0             -3590482.4      20999.879    
    344000   1399.4679     -3684032.1      0             -3591146.1      35473.473    
    345000   1398.8575     -3684173.3      0             -3591327.8      33235.718    
    346000   1400.6999     -3682356.2      0             -3589388.5      18696.676    
    347000   1400.5503     -3681849.9      0             -3588892.1      16659.49     
    348000   1402.5788     -3684259.1      0             -3591166.6      28950.309    
    349000   1398.6599     -3683910        0             -3591077.7      36199.106    
    350000   1400.1955     -3683865.9      0             -3590931.6      26665.443    
    351000   1400.6274     -3681362.3      0             -3588399.3      16006.585    
    352000   1399.8731     -3682982.7      0             -3590069.8      20957.435    
    353000   1399.0585     -3684056.5      0             -3591197.7      35148.958    
    354000   1398.9722     -3684291.3      0             -3591438.2      33303.679    
    355000   1401.0611     -3682565.7      0             -3589574        18843.039    
    356000   1402.5323     -3681701.5      0             -3588612.1      16797.501    
    357000   1400.5436     -3684015.4      0             -3591058        28966.51     
    358000   1397.3536     -3683884.5      0             -3591138.8      36063.008    
    359000   1398.4956     -3683741.1      0             -3590919.6      26678.271    
    360000   1400.9564     -3681500.9      0             -3588516.1      16149.909    
    361000   1398.2318     -3682965.8      0             -3590161.9      20929.286    
    362000   1400.252      -3684158.9      0             -3591220.8      34794.579    
    363000   1400.6052     -3684182.8      0             -3591221.3      33436.886    
    364000   1400.0286     -3682419.3      0             -3589496.1      19058.409    
    365000   1399.7023     -3681565.8      0             -3588664.2      16707.252    
    366000   1400.2083     -3684134.3      0             -3591199.2      28806.791    
    367000   1400.0829     -3683733.9      0             -3590807.1      36007.369    
    368000   1398.4994     -3683971.3      0             -3591149.5      26635.137    
    369000   1397.1625     -3681480.4      0             -3588747.4      16327.744    
    370000   1399.0091     -3683033.8      0             -3590178.2      20809.884    
    371000   1399.9515     -3684039.8      0             -3591121.7      34481.313    
    372000   1399.3564     -3684028.4      0             -3591149.8      33505.222    
    373000   1400.2527     -3682563.6      0             -3589625.5      19258.657    
    374000   1398.7848     -3681747.6      0             -3588907        16701.127    
    375000   1399.2984     -3684043.6      0             -3591168.8      28716.411    
    376000   1398.236      -3684011.2      0             -3591207        35796.231    
    377000   1398.3481     -3683963.6      0             -3591151.9      26741.304    
    378000   1398.9723     -3681520.7      0             -3588667.6      16549.893    
    379000   1400.6417     -3683109.9      0             -3590146        20751.966    
    380000   1400.0679     -3683989.8      0             -3591064        34263.657    
    381000   1402.527      -3684174.5      0             -3591085.5      33463.828    
    382000   1400.4157     -3682751.7      0             -3589802.8      19516.089    
    383000   1399.4682     -3681966.9      0             -3589080.8      16761.36     
    384000   1402.2215     -3683843.8      0             -3590775        28664.002    
    385000   1400.3558     -3683798.6      0             -3590853.7      35730.008    
    386000   1400.593      -3683731.1      0             -3590770.5      26793.966    
    387000   1399.4924     -3681596.1      0             -3588708.5      16669.528    
    388000   1399.9479     -3682884.4      0             -3589966.5      20758.464    
    389000   1399.5358     -3683845.3      0             -3590954.8      34009.411    
    390000   1401.1041     -3684088.8      0             -3591094.2      33569.491    
    391000   1397.6784     -3682573.2      0             -3589806        19793.315    
    392000   1402.5947     -3681753.5      0             -3588659.9      16859.366    
    393000   1401.8067     -3683785.4      0             -3590744.1      28571.523    
    394000   1396.3079     -3684030.2      0             -3591354        35601.766    
    395000   1401.2134     -3683900.4      0             -3590898.5      26850.018    
    396000   1399.6007     -3681888        0             -3588993.2      16752.112    
    397000   1399.9883     -3682946.2      0             -3590025.7      20790.211    
    398000   1402.0541     -3684044.6      0             -3590987        33775.942    
    399000   1400.6353     -3683912.3      0             -3590948.8      33644.568    
    400000   1402.2767     -3682981.1      0             -3589908.6      20015.105    
    401000   1403.2419     -3681634.7      0             -3588498.2      16945.28     
    402000   1399.3751     -3684255        0             -3591375.2      28318.377    
    403000   1399.4109     -3684022.2      0             -3591140        35526.09     
    404000   1399.5016     -3683824.7      0             -3590936.4      26843.167    
    405000   1401.4602     -3681689.1      0             -3588670.8      17035.294    
    406000   1399.5167     -3682973.4      0             -3590084.2      20723.351    
    407000   1403.7436     -3684122        0             -3590952.2      33547.962    
    408000   1401.2678     -3684061        0             -3591055.5      33622.7      
    409000   1398.3645     -3682675        0             -3589862.3      20358.663    
    410000   1400.5036     -3681754.2      0             -3588799.4      16866.705    
    411000   1399.4196     -3684033.1      0             -3591150.3      28247.15     
    412000   1399.2672     -3683833.2      0             -3590960.6      35543.501    
    413000   1401.0428     -3683844.8      0             -3590854.2      26848.548    
    414000   1398.4933     -3681846.3      0             -3589024.9      17138.789    
    415000   1401.7244     -3683054.4      0             -3590018.6      20745.337    
    416000   1399.3868     -3683923.6      0             -3591043        33340.871    
    417000   1401.7191     -3684267.8      0             -3591232.4      33519.559    
    418000   1397.9309     -3682824.8      0             -3590040.8      20608.8      
    419000   1398.4641     -3681806.1      0             -3588986.7      16844.635    
    420000   1400.4828     -3683993.7      0             -3591040.4      28121.91     
    421000   1399.7964     -3683817.9      0             -3590910.1      35580.676    
    422000   1399.0121     -3683684        0             -3590828.2      26848.572    
    423000   1402.0556     -3681739.1      0             -3588681.3      17313.934    
    424000   1399.1315     -3682863        0             -3589999.4      20738.986    
    425000   1399.5698     -3683798.5      0             -3590905.7      33141.974    
    426000   1400.6114     -3683971.9      0             -3591010        33546.251    
    427000   1399.9378     -3682784.2      0             -3589867        20846.781    
    428000   1402.5872     -3681727.8      0             -3588634.8      16910.27     
    429000   1400.707      -3683939.3      0             -3590971        27982.053    
    430000   1396.571      -3683661.3      0             -3590967.6      35448.098    
    431000   1401.6105     -3684095.2      0             -3591067        26806.956    
    432000   1401.5732     -3681882.3      0             -3588856.6      17363.556    
    433000   1402.0248     -3683032.2      0             -3589976.5      20868.34     
    434000   1401.5169     -3683926.4      0             -3590904.4      32986.95     
    435000   1400.2981     -3684095.9      0             -3591154.8      33500.2      
    436000   1399.7817     -3682789.8      0             -3589882.9      21158.039    
    437000   1396.1759     -3681867.1      0             -3589199.6      16901.453    
    438000   1401.7542     -3683715.2      0             -3590677.4      27807.858    
    439000   1396.5502     -3683880.4      0             -3591188.1      35301.418    
    440000   1401.2569     -3683741.7      0             -3590737        27015.883    
    441000   1402.5862     -3681813.4      0             -3588720.4      17570.113    
    442000   1400.1969     -3683036.4      0             -3590102        20925.138    
    443000   1401.6517     -3684139.6      0             -3591108.7      32764.375    
    444000   1397.7581     -3683998        0             -3591225.5      33475.919    
    445000   1399.291      -3682911.2      0             -3590036.9      21235.341    
    446000   1401.5634     -3681703        0             -3588677.9      17047.238    
    447000   1398.6606     -3683769.5      0             -3590937.1      27647.93     
    448000   1396.9553     -3683973.1      0             -3591253.8      35219.207    
    449000   1398.1342     -3683822.2      0             -3591024.7      26956.47     
    450000   1402.6587     -3682055.1      0             -3588957.3      17675.666    
    451000   1401.7204     -3682924.4      0             -3589888.9      21037.768    
    452000   1402.0106     -3684063.9      0             -3591009.1      32577.123    
    453000   1396.5899     -3684098.9      0             -3591403.9      33357.892    
    454000   1400.3323     -3682914.5      0             -3589971.1      21481.938    
    455000   1401.2642     -3681902.8      0             -3588897.6      17114.757    
    456000   1397.8232     -3683836.5      0             -3591059.6      27395.794    
    457000   1399.9434     -3683842.8      0             -3590925.3      35119.569    
    458000   1402.3623     -3683688.2      0             -3590610.1      27139.273    
    459000   1396.0209     -3681834.4      0             -3589177.2      17819.223    
    460000   1399.0983     -3682641.1      0             -3589779.6      21131.826    
    461000   1402.4769     -3683883.6      0             -3590797.9      32441.453    
    462000   1398.8509     -3684075.2      0             -3591230.1      33310.911    
    463000   1401.7589     -3682850.1      0             -3589812.1      21668.192    
    464000   1398.7879     -3681770.2      0             -3588929.3      17179.626    
    465000   1401.3296     -3683595.7      0             -3590586.2      27349.39     
    466000   1400.6332     -3684038.6      0             -3591075.3      34948.953    
    467000   1400.1176     -3683918        0             -3590988.8      27126.557    
    468000   1400.6346     -3681905.2      0             -3588941.8      17932.42     
    469000   1401.5839     -3682908.7      0             -3589882.3      21194.897    
    470000   1401.3815     -3683936.6      0             -3590923.6      32307.816    
    471000   1400.1541     -3683959.2      0             -3591027.7      33212.714    
    472000   1401.7215     -3683094.6      0             -3590059        21737.057    
    473000   1399.5446     -3681876.2      0             -3588985.1      17316.046    
    474000   1398.0664     -3683824.4      0             -3591031.4      27101.116    
    475000   1397.9593     -3683829.3      0             -3591043.4      34896.551    
    476000   1399.7782     -3683690.2      0             -3590783.6      27226.058    
    477000   1400.1842     -3681926.9      0             -3588993.4      17972.18     
    478000   1401.1128     -3682878.9      0             -3589883.8      21244.647    
    479000   1402.5476     -3683843        0             -3590752.6      32155.286    
    480000   1400.8558     -3683867.9      0             -3590889.8      33118.988    
    481000   1398.5124     -3683024        0             -3590201.4      21846.033    
    482000   1399.4349     -3682049.9      0             -3589166        17346.472    
    483000   1399.0644     -3683862.8      0             -3591003.6      26906.319    
    484000   1398.2453     -3683890.5      0             -3591085.7      34822.809    
    485000   1398.5956     -3683749.8      0             -3590921.7      27235.461    
    486000   1398.0106     -3682173.2      0             -3589384        18021.647    
    487000   1401.3391     -3683093.5      0             -3590083.3      21290.609    
    488000   1398.9124     -3683956.6      0             -3591107.4      31951.355    
    489000   1398.8217     -3683724.5      0             -3590881.4      32978.779    
    490000   1401.0559     -3682991.4      0             -3590000        21920.34     
    491000   1400.3053     -3681824.8      0             -3588883.2      17530.221    
    492000   1400.4025     -3683576.3      0             -3590628.3      26869.174    
    493000   1400.9862     -3683948.1      0             -3590961.3      34700.276    
    494000   1398.2573     -3683589.7      0             -3590784        27321.888    
    495000   1404.1096     -3681947.7      0             -3588753.6      18215.838    
    496000   1398.1972     -3682632.7      0             -3589831        21393.426    
    497000   1397.8083     -3683921.7      0             -3591145.8      31805.476    
    498000   1398.4274     -3684044.5      0             -3591227.6      32835.693    
    499000   1401.7777     -3683016        0             -3589976.7      22092.915    
    500000   1400.0855     -3681912.6      0             -3588985.6      17590.762    
    501000   1399.9462     -3683557.8      0             -3590640        26863.141    
    502000   1400.1036     -3683920.2      0             -3590992.1      34688.62     
    503000   1399.7381     -3683824.3      0             -3590920.4      27331.953    
    504000   1399.6445     -3682266.1      0             -3589368.3      18230.417    
    505000   1396.4362     -3682897.9      0             -3590213.1      21330.774    
    506000   1398.2958     -3683774.4      0             -3590966.2      31818.327    
    507000   1398.4647     -3683867.8      0             -3591048.4      32771.133    
    508000   1402.8501     -3683022.8      0             -3589912.3      22263.235    
    509000   1401.0796     -3681838.6      0             -3588845.6      17656.973    
    510000   1401.3242     -3683624        0             -3590614.8      26711.395    
    511000   1399.6074     -3683795.1      0             -3590899.8      34644.348    
    512000   1396.1462     -3683735.7      0             -3591070.2      27448.866    
    513000   1399.699      -3682200.5      0             -3589299.2      18299.587    
    514000   1401.2108     -3682931.6      0             -3589930        21462.314    
    515000   1400.5249     -3684163.5      0             -3591207.4      31582.783    
    516000   1398.7295     -3683954.4      0             -3591117.4      32583.499    
    517000   1402.9203     -3682942        0             -3589826.8      22401.537    
    518000   1402.7502     -3681939.4      0             -3588835.6      17803.35     
    519000   1399.9537     -3683527.2      0             -3590608.9      26600.506    
    520000   1397.2328     -3683999.3      0             -3591261.7      34517.292    
    521000   1399.4139     -3683961.2      0             -3591078.8      27486.804    
    522000   1401.017      -3682078.7      0             -3589089.9      18435.79     
    523000   1400.2222     -3682837.7      0             -3589901.7      21565.163    
    524000   1399.0995     -3683728.8      0             -3590867.2      31670.877    
    525000   1400.0653     -3683941        0             -3591015.4      32395.75     
    526000   1398.9262     -3682817.1      0             -3589967        22499.786    
    527000   1399.2851     -3682046.2      0             -3589172.4      17843.362    
    528000   1398.2251     -3683595.7      0             -3590792.1      26452.982    
    529000   1398.2628     -3683957        0             -3591151        34457.635    
    530000   1400.1445     -3683747.9      0             -3590817        27660.766    
    531000   1401.7324     -3681962.6      0             -3588926.3      18513.713    
    532000   1401.2396     -3682891.9      0             -3589888.3      21598.962    
    533000   1397.3112     -3683915.5      0             -3591172.6      31553.168    
    534000   1399.4835     -3684112.8      0             -3591225.7      32173.417    
    535000   1397.6848     -3683032        0             -3590264.3      22593.264    
    536000   1400.2146     -3682218.3      0             -3589282.7      17887.983    
    537000   1399.4092     -3683524.2      0             -3590642.1      26396.05     
    538000   1400.9094     -3683829        0             -3590847.3      34347.653    
    539000   1400.3083     -3683701.1      0             -3590759.3      27805.375    
    540000   1400.1078     -3682177.6      0             -3589249.1      18592.579    
    541000   1401.5391     -3682935.9      0             -3589912.4      21558.14     
    542000   1399.8164     -3684029.1      0             -3591120        31457.713    
    543000   1398.9448     -3683772.9      0             -3590921.6      32186.025    
    544000   1400.492      -3683085.2      0             -3590131.3      22605.76     
    545000   1400.3407     -3681966.2      0             -3589022.3      18100.731    
    546000   1402.1681     -3683518        0             -3590452.7      26368.882    
    547000   1399.1485     -3683712.8      0             -3590848        34273.005    
    548000   1398.4774     -3683774.4      0             -3590954.1      27823.759    
    549000   1399.8647     -3682197.7      0             -3589285.4      18555.564    
    550000   1402.7717     -3682863.3      0             -3589758.1      21632.166    
    551000   1400.6809     -3683823.9      0             -3590857.4      31384.955    
    552000   1401.6601     -3683729.8      0             -3590698.3      32162.958    
    553000   1398.8987     -3683091.8      0             -3590243.6      22710.56     
    554000   1400.0459     -3681793        0             -3588868.6      18291.35     
    555000   1399.2453     -3683713.7      0             -3590842.5      26273.532    
    556000   1402.1632     -3683669.2      0             -3590604.3      34189.991    
    557000   1403.0203     -3683717        0             -3590595.2      27960.551    
    558000   1401.1377     -3682149.5      0             -3589152.7      18632.134    
    559000   1399.9469     -3682805.9      0             -3589888.1      21591.994    
    560000   1399.168      -3684131.6      0             -3591265.5      31279.369    
    561000   1397.2162     -3683843.6      0             -3591107        31964.511    
    562000   1399.5068     -3683149.4      0             -3590260.8      22750.193    
    563000   1400.9914     -3682171.9      0             -3589184.8      18518.904    
    564000   1401.9921     -3683412.8      0             -3590359.3      26320.006    
    565000   1401.4184     -3683825        0             -3590809.5      34011.551    
    566000   1400.2543     -3683446.8      0             -3590508.6      27978.132    
    567000   1401.6567     -3682227.4      0             -3589196.2      18705.957    
    568000   1398.5761     -3682797.2      0             -3589970.4      21555.98     
    569000   1396.1464     -3683798.6      0             -3591133        31259.887    
    570000   1400.8312     -3683734.7      0             -3590758.2      31970.331    
    571000   1397.3476     -3682983.5      0             -3590238.2      22799.027    
    572000   1401.394      -3682015.7      0             -3589001.9      18674.594    
    573000   1399.6451     -3683712.6      0             -3590814.9      26108.94     
    574000   1398.2655     -3683786.6      0             -3590980.4      33820.283    
    575000   1398.8849     -3683852.1      0             -3591004.8      27821.401    
    576000   1397.1901     -3682410.5      0             -3589675.6      18727.152    
    577000   1401.2793     -3682728.1      0             -3589721.8      21613.747    
    578000   1398.5925     -3683948.3      0             -3591120.4      31153.392    
    579000   1398.8503     -3683926.7      0             -3591081.7      31872.419    
    580000   1399.5756     -3683158.2      0             -3590265        22757.291    
    581000   1400.5873     -3682259.8      0             -3589299.5      18806.474    
    582000   1402.6776     -3683569.6      0             -3590470.5      26174.44     
    583000   1401.2305     -3683789.2      0             -3590786.2      33697.389    
    584000   1400.4895     -3683679.4      0             -3590725.6      27943.728    
    585000   1397.7695     -3682077.5      0             -3589304.2      18895.788    
    586000   1400.9464     -3682786.1      0             -3589802        21623.389    
    587000   1397.5909     -3683838.5      0             -3591077.1      31143.291    
    588000   1398.0886     -3683574.6      0             -3590780.2      31894.421    
    589000   1403.2857     -3683146.9      0             -3590007.5      22838.544    
    590000   1399.0257     -3682218.8      0             -3589362.2      18963.451    
    591000   1398.9265     -3683647.2      0             -3590797.2      26069.841    
    592000   1398.9551     -3683919.5      0             -3591067.5      33514.36     
    593000   1399.0578     -3683886.7      0             -3591027.9      27868.363    
    594000   1399.0869     -3682305.5      0             -3589444.7      18895.84     
    595000   1399.132      -3682696.3      0             -3589832.6      21577.953    
    596000   1400.1907     -3683863.4      0             -3590929.4      31098.389    
    597000   1401.6394     -3683855.5      0             -3590825.4      31821.7      
    598000   1397.6989     -3682992        0             -3590223.4      22904.757    
    599000   1396.106      -3682067.1      0             -3589404.3      19065.61     
    600000   1399.1049     -3683662.2      0             -3590800.3      26000.788    
    601000   1400.2763     -3683729.4      0             -3590789.7      33400.326    
    602000   1400.4691     -3683543.7      0             -3590591.2      27968.672    
    603000   1399.5375     -3682203.5      0             -3589312.9      19077.95     
    604000   1401.7398     -3682732.4      0             -3589695.6      21628.746    
    605000   1397.9086     -3683767.6      0             -3590985.1      31094.968    
    606000   1402.0749     -3683964.3      0             -3590905.2      31727.385    
    607000   1402.2989     -3683094.9      0             -3590021        22956.085    
    608000   1399.5186     -3682128.6      0             -3589239.2      19144.063    
    609000   1399.291      -3683647.7      0             -3590773.5      26039.453    
    610000   1401.1745     -3683807        0             -3590807.7      33267.398    
    611000   1400.7642     -3683553.5      0             -3590581.5      28017.158    
    612000   1396.8191     -3682283.7      0             -3589573.6      19193.678    
    613000   1396.4728     -3682673        0             -3589985.7      21726.781    
    614000   1398.339      -3683965.8      0             -3591154.7      31017.509    
    615000   1398.8053     -3683859        0             -3591017        31663.6      
    616000   1397.5076     -3683126.3      0             -3590370.4      23043.009    
    617000   1400.4736     -3682165        0             -3589212.2      19249.63     
    618000   1398.4929     -3683536.5      0             -3590715.2      25973.273    
    619000   1400.8325     -3683587.2      0             -3590610.7      33176.321    
    620000   1401.5797     -3683833.6      0             -3590807.5      27993.311    
    621000   1403.1111     -3682371        0             -3589243.2      19334.842    
    622000   1399.2145     -3682782        0             -3589912.8      21665.239    
    623000   1397.8793     -3684006.1      0             -3591225.5      30939.52     
    624000   1400.0333     -3683774.6      0             -3590851.1      31660.887    
    625000   1398.0737     -3683121.1      0             -3590327.6      23076.575    
    626000   1398.3585     -3682259.3      0             -3589446.9      19287.641    
    627000   1401.0419     -3683521.3      0             -3590530.8      26021.922    
    628000   1402.0239     -3683823.5      0             -3590767.9      32879.468    
    629000   1400.4034     -3683513.7      0             -3590565.6      28076.658    
    630000   1402.4812     -3682318        0             -3589232        19558.458    
    631000   1401.8663     -3682798.6      0             -3589753.4      21679.731    
    632000   1400.0879     -3684124.2      0             -3591197.1      30785.459    
    633000   1396.5802     -3683736.9      0             -3591042.5      31570.824    
    634000   1401.1104     -3683044.3      0             -3590049.3      23097.174    
    635000   1399.3915     -3682297.4      0             -3589416.4      19363.081    
    636000   1398.998      -3683326.7      0             -3590471.9      26036.632    
    637000   1398.09       -3683877.7      0             -3591083.1      32731.144    
    638000   1401.1255     -3683879.3      0             -3590883.3      28023.19     
    639000   1399.8735     -3682330.4      0             -3589417.5      19572.368    
    640000   1398.7552     -3682888.5      0             -3590049.9      21616.048    
    641000   1400.7444     -3683925.5      0             -3590954.7      30799.39     
    642000   1399.849      -3683811.4      0             -3590900.1      31505.957    
    643000   1397.4368     -3683189.4      0             -3590438.2      23070.971    
    644000   1401.6021     -3682394.3      0             -3589366.6      19548.961    
    645000   1397.8015     -3683465.3      0             -3590689.9      26007.432    
    646000   1401.7275     -3683637.8      0             -3590601.8      32726.144    
    647000   1402.8007     -3683723.2      0             -3590616        28016.518    
    648000   1398.2122     -3682278        0             -3589475.4      19778.988    
    649000   1398.6145     -3682723        0             -3589893.6      21643.474    
    650000   1398.5214     -3683948.5      0             -3591125.3      30723.125    
    651000   1396.7359     -3683907.7      0             -3591203        31457.307    
    652000   1400.7546     -3683039        0             -3590067.6      23089.165    
    653000   1399.0638     -3682121.7      0             -3589262.5      19626.3      
    654000   1398.9721     -3683559        0             -3590705.9      26041.86     
    655000   1398.0813     -3683787.2      0             -3590993.2      32482.053    
    656000   1398.8436     -3683747.2      0             -3590902.7      27991.361    
    657000   1400.1839     -3682210.7      0             -3589277.1      19964.388    
    658000   1402.6025     -3682832        0             -3589737.9      21682.772    
    659000   1401.8537     -3683715.2      0             -3590670.8      30698.853    
    660000   1398.0371     -3683738.1      0             -3590947.1      31430.778    
    661000   1400.5628     -3682950.5      0             -3589991.8      23099.017    
    662000   1402.0867     -3682559.9      0             -3589500.1      19634        
    663000   1399.8775     -3683478.6      0             -3590565.4      26013.343    
    664000   1400.8766     -3683619        0             -3590639.5      32442.038    
    665000   1399.1275     -3683711.1      0             -3590847.7      27993.148    
    666000   1399.2982     -3682308.6      0             -3589433.9      20109.968    
    667000   1399.2292     -3682649.3      0             -3589779.1      21751.342    
    668000   1401.2366     -3683650.9      0             -3590647.5      30632.95     
    669000   1398.7293     -3683650        0             -3590813.1      31324.958    
    670000   1399.6558     -3683031.5      0             -3590133.1      23028.613    
    671000   1399.859      -3682208.6      0             -3589296.6      19864.245    
    672000   1402.3548     -3683446.9      0             -3590369.3      26026.187    
    673000   1400.5427     -3683664.1      0             -3590706.7      32293.349    
    674000   1395.2765     -3683876.7      0             -3591268.9      27843.34     
    675000   1402.6611     -3682419.5      0             -3589321.5      20159.143    
    676000   1399.3812     -3682840.5      0             -3589960.3      21784.684    
    677000   1400.7828     -3683778.5      0             -3590805.2      30548.501    
    678000   1398.8769     -3683883.1      0             -3591036.3      31234.936    
    679000   1396.9326     -3682974.5      0             -3590256.8      23092.932    
    680000   1397.5297     -3682253.2      0             -3589495.9      19848.886    
    681000   1397.2781     -3683376.5      0             -3590635.8      26067.68     
    682000   1398.8418     -3683826.7      0             -3590982.2      32205.056    
    683000   1400.5003     -3683873.2      0             -3590918.6      27826.868    
    684000   1398.4815     -3682383        0             -3589562.5      20186.101    
    685000   1398.6347     -3682772.4      0             -3589941.7      21825.043    
    686000   1400.3316     -3683658.1      0             -3590714.7      30430.046    
    687000   1401.5801     -3683961.2      0             -3590935        31207.7      
    688000   1398.1099     -3683215.8      0             -3590420        23084.36     
    689000   1396.1843     -3682400.7      0             -3589732.6      19951.084    
    690000   1400.2237     -3683633.1      0             -3590696.9      26053.588    
    691000   1401.349      -3683564.3      0             -3590553.4      32198.446    
    692000   1399.4378     -3683677.3      0             -3590793.3      27941.655    
    693000   1398.2918     -3682390.4      0             -3589582.4      20326.781    
    694000   1400.8034     -3682930.3      0             -3589955.7      21831.441    
    695000   1396.8976     -3683667.9      0             -3590952.5      30356.036    
    696000   1399.5054     -3683456.8      0             -3590568.3      31363.826    
    697000   1400.0561     -3683105.1      0             -3590180.1      23168.978    
    698000   1403.7855     -3682358.7      0             -3589186.1      20072.201    
    699000   1399.5841     -3683575.8      0             -3590682.1      26134.8      
    700000   1398.7676     -3683717.9      0             -3590878.4      31971.224    
    701000   1398.0275     -3683779.2      0             -3590988.8      27794.897    
    702000   1394.4099     -3682361.2      0             -3589810.9      20415.461    
    703000   1403.8065     -3682880.6      0             -3589706.6      21953.1      
    704000   1398.2354     -3683613.1      0             -3590808.9      30299.771    
    705000   1397.7938     -3683701.8      0             -3590926.9      31289.342    
    706000   1399.6322     -3683091.8      0             -3590194.9      23136.013    
    707000   1400.1814     -3682351.7      0             -3589418.3      20078.857    
    708000   1398.1341     -3683413.5      0             -3590616.1      26183.39     
    709000   1399.516      -3683830.5      0             -3590941.3      31849.319    
    710000   1400.7875     -3683681.9      0             -3590708.3      27791.627    
    711000   1400.5787     -3682457.6      0             -3589497.9      20584.187    
    712000   1403.3213     -3682683        0             -3589541.3      22103.681    
    713000   1401.5689     -3683660.6      0             -3590635.1      30168.642    
    714000   1400.4601     -3683987.6      0             -3591035.7      31207.021    
    715000   1400.0762     -3682944.3      0             -3590017.9      23226.946    
    716000   1400.1552     -3682408.2      0             -3589476.6      20099.038    
    717000   1402.5395     -3683450.1      0             -3590360.2      26319.68     
    718000   1397.1528     -3683645.8      0             -3590913.5      31731.144    
    719000   1401.1829     -3683603        0             -3590603.2      27809.165    
    720000   1401.7848     -3682420.9      0             -3589381.1      20651.758    
    721000   1400.0495     -3682818.1      0             -3589893.5      22079.328    
    722000   1398.432      -3683881.7      0             -3591064.5      30018.459    
    723000   1400.6148     -3683907.9      0             -3590945.8      31157.122    
    724000   1399.4564     -3683147.9      0             -3590262.7      23214.672    
    725000   1401.2025     -3682282.5      0             -3589281.4      20176.407    
    726000   1399.0286     -3683366.3      0             -3590509.4      26296.041    
    727000   1398.5588     -3683770.2      0             -3590944.5      31680.25     
    728000   1398.5689     -3683703.7      0             -3590877.3      27784.444    
    729000   1399.2985     -3682461.7      0             -3589586.9      20727.87     
    730000   1401.804      -3682759.9      0             -3589718.8      22101.946    
    731000   1399.7971     -3683757.8      0             -3590850        29978.172    
    732000   1398.0526     -3683689.3      0             -3590897.3      31121.912    
    733000   1400.7799     -3683205.4      0             -3590232.3      23250.166    
    734000   1400.6866     -3682555.4      0             -3589588.5      20107.137    
    735000   1401.0275     -3683577.5      0             -3590588        26297.57     
    736000   1400.6398     -3683885.9      0             -3590922.2      31620.241    
    737000   1400.012      -3683486.8      0             -3590564.7      27776.341    
    738000   1398.8128     -3682604.5      0             -3589761.9      20809.659    
    739000   1398.9648     -3682811.2      0             -3589958.6      22085.788    
    740000   1405.0942     -3683696.7      0             -3590437.3      30026.751    
    741000   1400.0511     -3683746.6      0             -3590821.9      31154.423    
    742000   1400.3489     -3683065.3      0             -3590120.9      23426.989    
    743000   1399.5752     -3682480.1      0             -3589586.9      20089.686    
    744000   1398.6825     -3683414.2      0             -3590580.3      26311.642    
    745000   1400.7585     -3683701.2      0             -3590729.5      31661.717    
    746000   1400.6569     -3683594.2      0             -3590629.2      27687.099    
    747000   1398.6956     -3682656.3      0             -3589821.6      20792.847    
    748000   1398.0061     -3682811.6      0             -3590022.6      22121.414    
    749000   1398.5326     -3683751        0             -3590927.1      29894.614    
    750000   1397.7313     -3683816.4      0             -3591045.7      30969.829    
    751000   1400.1625     -3683014        0             -3590081.9      23529.255    
    752000   1398.2876     -3682431.2      0             -3589623.6      20186.301    
    753000   1398.4427     -3683487.7      0             -3590669.7      26243.461    
    754000   1401.5559     -3683827.7      0             -3590803.1      31617.367    
    755000   1399.4871     -3683540.5      0             -3590653.3      27566.204    
    756000   1397.4948     -3682767.6      0             -3590012.5      20881.211    
    757000   1397.6701     -3682876.8      0             -3590110.1      22171.224    
    758000   1402.4995     -3683683.3      0             -3590596.1      29870.486    
    759000   1402.8756     -3683624.7      0             -3590512.5      30964.576    
    760000   1400.0533     -3682965.3      0             -3590040.4      23578.366    
    761000   1402.0429     -3682237.4      0             -3589180.4      20372.095    
    762000   1399.8859     -3683361.8      0             -3590448.1      26381.197    
    763000   1399.8228     -3683792.1      0             -3590882.6      31497.214    
    764000   1400.5488     -3683523.3      0             -3590565.5      27458.959    
    765000   1399.3532     -3682783        0             -3589904.6      20916.492    
    766000   1401.9231     -3682783.1      0             -3589734.2      22296.868    
    767000   1402.2139     -3683836.9      0             -3590768.7      29742.33     
    768000   1400.2007     -3683753        0             -3590818.4      30845.36     
    769000   1400.0036     -3683030.3      0             -3590108.7      23556.683    
    770000   1397.0736     -3682448.1      0             -3589721        20301.828    
    771000   1400.5778     -3683559.6      0             -3590599.9      26370.929    
    772000   1400.8728     -3683606.2      0             -3590626.9      31513.404    
    773000   1400.9778     -3683344.1      0             -3590357.8      27425.701    
    774000   1399.486      -3682847.8      0             -3589960.6      21013.347    
    775000   1401.1996     -3682728.5      0             -3589727.6      22369.22     
    776000   1401.8992     -3683654.1      0             -3590606.8      29745.987    
    777000   1399.0796     -3683744.9      0             -3590884.6      30724.029    
    778000   1397.4606     -3683197.3      0             -3590444.6      23473.005    
    779000   1400.413      -3682450.5      0             -3589501.8      20367.849    
    780000   1399.4296     -3683464.4      0             -3590580.9      26362.232    
    781000   1398.5674     -3683842.7      0             -3591016.5      31364.407    
    782000   1399.4991     -3683541.2      0             -3590653.2      27314.286    
    783000   1397.6425     -3682551.2      0             -3589786.4      21070.734    
    784000   1399.9008     -3682711.5      0             -3589796.8      22464.452    
    785000   1399.5489     -3683764.9      0             -3590873.6      29603.139    
    786000   1400.6646     -3683746.4      0             -3590781        30739.624    
    787000   1398.9573     -3683253        0             -3590400.9      23503.56     
    788000   1401.1807     -3682398.1      0             -3589398.4      20472.053    
    789000   1400.774      -3683417        0             -3590444.3      26366.294    
    790000   1400.7285     -3683675.6      0             -3590705.9      31379.063    
    791000   1401.0169     -3683572.6      0             -3590583.8      27300.552    
    792000   1398.1663     -3682515.8      0             -3589716.2      21109.555    
    793000   1398.6488     -3682892.6      0             -3590060.9      22540.2      
[...]
    889000   1402.5912     -3683763.7      0             -3590670.4      30892.58     
    890000   1400.5568     -3683350.6      0             -3590392.4      27199.213    
    891000   1400.7769     -3682514.2      0             -3589541.3      21624.206    
    892000   1401.1285     -3683053.1      0             -3590056.9      23092.804    
    893000   1399.2225     -3683524.2      0             -3590654.5      29191.147    
    894000   1399.7035     -3683477        0             -3590575.4      29910.427    
    895000   1400.6641     -3683059.5      0             -3590094.1      24003.984    
    896000   1397.4814     -3682601.9      0             -3589847.7      21243.126    
    897000   1405.0573     -3683428.5      0             -3590171.5      26129.534    
    898000   1398.5044     -3683797.5      0             -3590975.4      30783.071    
    899000   1402.2893     -3683417.2      0             -3590343.9      27179.729    
    900000   1398.1282     -3682820.2      0             -3590023.2      21439.772    
    901000   1400.1462     -3683129.7      0             -3590198.7      23008.113    
    902000   1400.389      -3683407.7      0             -3590460.5      29201.442    
    903000   1401.7391     -3683890.4      0             -3590853.7      29733.5      
    904000   1400.0091     -3683001        0             -3590079.1      23964.68     
    905000   1397.6347     -3682545.4      0             -3589781        21351.139    
    906000   1400.5458     -3683427.7      0             -3590470.1      26119.186    
    907000   1402.8753     -3683702.1      0             -3590589.9      30761.185    
    908000   1401.5189     -3683549.3      0             -3590527.2      27080.444    
    909000   1399.3229     -3682699.5      0             -3589823.1      21505.654    
    910000   1399.6654     -3682905.7      0             -3590006.6      23187.214    
    911000   1402.1543     -3683690.3      0             -3590626        29115.444    
    912000   1398.4739     -3683631.5      0             -3590811.5      29667.34     
    913000   1399.2687     -3682978.3      0             -3590105.5      23885.277    
    914000   1398.6684     -3682688.8      0             -3589855.8      21370.2      
    915000   1400.3085     -3683447.3      0             -3590505.5      26170.014    
    916000   1399.5656     -3683654.8      0             -3590762.4      30621.323    
    917000   1399.5829     -3683492        0             -3590598.3      27121.783    
    918000   1398.9805     -3682587.2      0             -3589733.5      21629.216    
    919000   1402.4274     -3682828.6      0             -3589746.2      23351.926    
    920000   1403.0634     -3683592.9      0             -3590468.3      29092.646    
    921000   1399.168      -3683567.3      0             -3590701.2      29643.562    
    922000   1400.1912     -3682873.8      0             -3589939.7      23944.756    
    923000   1399.4376     -3682599.1      0             -3589715.1      21485.307    
    924000   1403.929      -3683294.1      0             -3590112        26230.223    
    925000   1399.5571     -3683738.1      0             -3590846.2      30474.297    
    926000   1402.2348     -3683654.9      0             -3590585.3      27044.972    
    927000   1401.1036     -3682592.8      0             -3589598.2      21677.591    
    928000   1400.2175     -3683129.4      0             -3590193.6      23285.115    
    929000   1402.5647     -3683629.3      0             -3590537.8      29140.778    
    930000   1398.0604     -3683519.5      0             -3590726.9      29602.34     
    931000   1399.9829     -3683008.5      0             -3590088.3      23944.567    
    932000   1400.6209     -3682725        0             -3589762.4      21580.358    
    933000   1399.5441     -3683342.4      0             -3590451.4      26133.564    
    934000   1400.8828     -3683714        0             -3590734.1      30474.662    
    935000   1399.3281     -3683329.4      0             -3590452.7      27069.332    
    936000   1399.6938     -3682509.6      0             -3589608.6      21770.57     
    937000   1399.1289     -3682710.7      0             -3589847.2      23438.236    
    938000   1396.6684     -3683639.6      0             -3590939.4      29135.617    
    939000   1401.8963     -3683423.6      0             -3590376.4      29559.43     
    940000   1396.3924     -3683089.8      0             -3590407.9      23904.444    
    941000   1399.9332     -3682537.9      0             -3589621        21683.582    
    942000   1400.0972     -3683343.4      0             -3590415.6      26181.048    
    943000   1400.2521     -3683742.4      0             -3590804.3      30285.312    
    944000   1401.937      -3683463.4      0             -3590413.5      27007.397    
    945000   1399.678      -3682945.7      0             -3590045.8      21720.752    
    946000   1402.7605     -3683003.2      0             -3589898.7      23330.066    
    947000   1398.7445     -3683397.5      0             -3590559.6      29175.099    
    948000   1398.158      -3683851.2      0             -3591052.1      29305.975    
    949000   1400.7311     -3683005.6      0             -3590035.8      23998.671    
    950000   1400.9535     -3682769.5      0             -3589784.9      21739.5      
    951000   1400.2397     -3683237.8      0             -3590300.6      26225.926    
    952000   1399.726      -3683690.9      0             -3590787.8      30210.031    
    953000   1398.353      -3683313        0             -3590501        27018.715    
    954000   1400.9311     -3682679.3      0             -3589696.2      21920.506    
    955000   1399.0461     -3682932.4      0             -3590074.4      23386.028    
    956000   1398.622      -3683699.3      0             -3590869.4      29072.528    
    957000   1401.0139     -3683500        0             -3590511.4      29324.223    
    958000   1397.4204     -3682992.2      0             -3590242.1      23994.74     
    959000   1403.2449     -3682556.6      0             -3589419.9      21925.699    
    960000   1400.6687     -3683305.6      0             -3590339.9      26338.459    
    961000   1398.4576     -3683636.6      0             -3590817.7      30174.968    
    962000   1401.1888     -3683807.5      0             -3590807.3      26837.893    
    963000   1401.3666     -3682806        0             -3589794        21849.386    
    964000   1398.7306     -3683045.1      0             -3590208.1      23425.664    
    965000   1398.4848     -3683404.8      0             -3590584        29204.368    
    966000   1401.201      -3683473.9      0             -3590472.8      29369.061    
    967000   1401.2024     -3682853.9      0             -3589852.8      24026.528    
    968000   1403.3598     -3682605.3      0             -3589461        21933.621    
    969000   1404.5139     -3683484.9      0             -3590263.9      26410.937    
    970000   1401.9738     -3683421.2      0             -3590368.9      30282.378    
    971000   1402.2123     -3683248.2      0             -3590180        27001.763    
    972000   1398.1799     -3682681.6      0             -3589881.1      21979.572    
    973000   1398.4874     -3682916        0             -3590095.1      23528.863    
    974000   1400.5615     -3683620.3      0             -3590661.7      29101.116    
    975000   1400.2436     -3683563.9      0             -3590626.5      29234.976    
    976000   1400.8929     -3682994        0             -3590013.4      23980.958    
    977000   1399.908      -3682744.2      0             -3589829        21950.534    
    978000   1397.0335     -3683399.1      0             -3590674.6      26372.876    
    979000   1403.6223     -3683622        0             -3590460.3      30178.626    
    980000   1398.3933     -3683393.2      0             -3590578.5      26924.39     
    981000   1399.4447     -3682738.6      0             -3589854.2      22076.378    
    982000   1398.8212     -3682870.2      0             -3590027.1      23550.571    
    983000   1398.5683     -3683449.6      0             -3590623.4      29095.965    
    984000   1398.4503     -3683546        0             -3590727.6      29285.047    
    985000   1398.0287     -3683123.4      0             -3590332.9      23851.083    
    986000   1400.3881     -3682902.9      0             -3589955.9      21993.427    
    987000   1399.4605     -3683361.9      0             -3590476.4      26371.436    
    988000   1400.3532     -3683701.6      0             -3590756.8      30025.454    
    989000   1398.3473     -3683537.6      0             -3590725.9      26830.696    
    990000   1401.232      -3682755.7      0             -3589752.6      22151.151    
    991000   1399.4402     -3683011.3      0             -3590127.1      23536.429    
    992000   1400.4863     -3683675.2      0             -3590721.6      29054.627    
    993000   1399.7091     -3683620.2      0             -3590718.2      29207.032    
    994000   1398.8066     -3683170.9      0             -3590328.8      23797.632    
    995000   1398.3174     -3682833.3      0             -3590023.6      22049.253    
    996000   1399.9454     -3683368.8      0             -3590451.1      26359.04     
    997000   1403.0088     -3683538.5      0             -3590417.5      30019.663    
    998000   1401.6434     -3683367.7      0             -3590337.3      26864.112    
    999000   1399.9683     -3682752.5      0             -3589833.3      22158.401    
   1000000   1399.1111     -3682955.4      0             -3590093.1      23615.942    
   1001000   1399.5329     -3683508.3      0             -3590618        29079.391    
   1002000   1397.7102     -3683551.1      0             -3590781.7      29171.875    
   1003000   1399.2319     -3683037.1      0             -3590166.8      23849.076    
   1004000   1399.9665     -3682697.8      0             -3589778.7      22185.1      
   1005000   1400.8655     -3683385.1      0             -3590406.3      26410.678    
   1006000   1401.235      -3683559        0             -3590555.8      29989.413    
   1007000   1400.0434     -3683427.3      0             -3590503.1      26782.171    
   1008000   1399.8895     -3682700.5      0             -3589786.5      22193.415    
   1009000   1401.4489     -3683084.8      0             -3590067.3      23642.559    
   1010000   1402.9461     -3683514.7      0             -3590397.8      29077.094    
   1011000   1403.6422     -3683420.3      0             -3590257.2      29194.581    
   1012000   1401.7764     -3683087.5      0             -3590048.3      23939.064    
   1013000   1399.9205     -3682714.1      0             -3589798.1      22268.05     
   1014000   1401.2071     -3683304.9      0             -3590303.5      26423.022    
   1015000   1400.0742     -3683630.1      0             -3590703.9      29931.04     
   1016000   1400.3666     -3683218.6      0             -3590273        26794.7      
   1017000   1397.121      -3682898.5      0             -3590168.2      22192.491    
   1018000   1402.7685     -3683170.1      0             -3590065.1      23706.946    
   1019000   1398.8807     -3683610.2      0             -3590763.2      28919.64     
   1020000   1399.6208     -3683651.6      0             -3590755.5      28975.153    
   1021000   1398.8816     -3682969.9      0             -3590122.8      23887.977    
   1022000   1401.127      -3682735.5      0             -3589739.4      22306.112    
   1023000   1402.5788     -3683229.1      0             -3590136.6      26480.321    
   1024000   1403.0108     -3683448.6      0             -3590327.4      29916.883    
   1025000   1401.8074     -3683415.4      0             -3590374.1      26724.108    
   1026000   1400.7039     -3682904.8      0             -3589936.7      22234.351    
   1027000   1398.4473     -3683044.7      0             -3590226.5      23652.058    
   1028000   1403.6383     -3683307.3      0             -3590144.5      28905.291    
   1029000   1398.6193     -3683528.2      0             -3590698.5      29011.789    
   1030000   1400.929      -3683097.1      0             -3590114.1      23933.144    
   1031000   1400.8987     -3682877.6      0             -3589896.7      22254.941    
   1032000   1399.8795     -3683444        0             -3590530.6      26445.945    
   1033000   1401.6082     -3683780.6      0             -3590752.6      29721.22     
   1034000   1400.1253     -3683431.6      0             -3590502        26777.175    
   1035000   1404.6489     -3682655        0             -3589425.1      22336.248    
   1036000   1401.6277     -3683151.1      0             -3590121.8      23619.458    
   1037000   1401.4982     -3683571.7      0             -3590551        28851.822    
   1038000   1399.2399     -3683591.6      0             -3590720.8      28983.432    
   1039000   1397.9967     -3683045.1      0             -3590256.7      23971.659    
   1040000   1400.4708     -3682745.3      0             -3589792.7      22263.713    
   1041000   1400.3503     -3683307.6      0             -3590363.1      26552.472    
   1042000   1401.2595     -3683728.4      0             -3590723.5      29705.818    
   1043000   1400.0222     -3683563        0             -3590640.2      26679.397    
   1044000   1398.2948     -3682708.3      0             -3589900.2      22310.825    
   1045000   1400.4651     -3682942.8      0             -3589990.6      23808.867    
   1046000   1400.7013     -3683624        0             -3590656.2      28827.228    
   1047000   1400.002      -3683671.6      0             -3590750.2      28915.132    
   1048000   1398.3938     -3682897.9      0             -3590083.2      23992.826    
   1049000   1401.9693     -3682630.4      0             -3589578.3      22210.273    
   1050000   1400.8457     -3683518.9      0             -3590541.4      26478.297    
   1051000   1401.3224     -3683731.8      0             -3590722.7      29580.917    
   1052000   1402.4049     -3683366.7      0             -3590285.8      26721.775    
   1053000   1400.4923     -3682615.1      0             -3589661.1      22414.712    
   1054000   1403.3981     -3683158.3      0             -3590011.5      23774.032    
   1055000   1398.867      -3683590.6      0             -3590744.5      28778.34     
   1056000   1401.4923     -3683637.6      0             -3590617.3      28962.861    
   1057000   1399.6568     -3683160.5      0             -3590262        23975.69     
   1058000   1400.8696     -3682666.1      0             -3589687        22390.028    
   1059000   1398.1399     -3683292.5      0             -3590494.6      26508.436    
   1060000   1398.5607     -3683628.5      0             -3590802.7      29616.61     
   1061000   1399.7373     -3683347.6      0             -3590443.7      26670.336    
   1062000   1399.7412     -3682991.1      0             -3590087        22345.448    
   1063000   1399.8834     -3682944.7      0             -3590031.1      23915.296    
   1064000   1396.9558     -3683683.5      0             -3590964.3      28713.019    
   1065000   1400.2452     -3683678.8      0             -3590741.2      28871.953    
   1066000   1398.6637     -3683169.3      0             -3590336.7      23919.082    
   1067000   1400.1737     -3682938.6      0             -3590005.7      22363.677    
   1068000   1402.9084     -3683371.8      0             -3590257.5      26508.125    
   1069000   1399.3582     -3683543.8      0             -3590665.1      29636.395    
   1070000   1399.2427     -3683509        0             -3590637.9      26597.51     
   1071000   1399.0576     -3682734        0             -3589875.3      22480.589    
   1072000   1400.9034     -3683033.1      0             -3590051.8      23954.706    
   1073000   1399.6662     -3683316.7      0             -3590417.5      28771.942    
   1074000   1398.6642     -3683549.6      0             -3590716.9      28833.814    
   1075000   1396.9099     -3682930.4      0             -3590214.2      24117.049    
   1076000   1400.7507     -3682655.6      0             -3589684.5      22493.626    
   1077000   1400.4462     -3683500.9      0             -3590550        26482.09     
   1078000   1398.976      -3683468.4      0             -3590615.1      29633.899    
   1079000   1400.0296     -3683327.2      0             -3590403.9      26530.25     
   1080000   1400.6922     -3682777.8      0             -3589810.5      22536.768    
   1081000   1400.3727     -3683164.7      0             -3590218.7      24063.22     
   1082000   1399.5855     -3683480.5      0             -3590586.6      28707.232    
   1083000   1401.6755     -3683412        0             -3590379.5      28827.787    
   1084000   1402.2695     -3683101.1      0             -3590029.2      24140.528    
   1085000   1400.7873     -3682817.6      0             -3589844.1      22547.042    
   1086000   1401.4635     -3683416.5      0             -3590398        26509.907    
   1087000   1402.748      -3683524.8      0             -3590421.1      29661.565    
   1088000   1401.234      -3683365        0             -3590361.8      26520.679    
   1089000   1400.6354     -3682599.3      0             -3589635.8      22649.269    
   1090000   1404.1467     -3683198.3      0             -3590001.7      24109.056    
   1091000   1400.3153     -3683521.5      0             -3590579.3      28653.843    
   1092000   1399.379      -3683831.3      0             -3590951.2      28598.745    
   1093000   1400.9454     -3683086.5      0             -3590102.5      24112.502    
   1094000   1399.0009     -3682743.6      0             -3589888.6      22528.221    
   1095000   1401.3737     -3683486        0             -3590473.5      26478.47     
   1096000   1400.0127     -3683817.6      0             -3590895.5      29457.784    
   1097000   1402.7666     -3683311.8      0             -3590206.8      26468.91     
   1098000   1400.4374     -3682683.3      0             -3589732.9      22631.457    
   1099000   1401.1361     -3683012        0             -3590015.2      24146.131    
   1100000   1401.0385     -3683545.6      0             -3590555.4      28656.122    
   1101000   1399.803      -3683602.5      0             -3590694.2      28598.568    
   1102000   1400.4554     -3683122.2      0             -3590170.6      24127.629    
   1103000   1399.2131     -3682693.5      0             -3589824.4      22608.353    
   1104000   1399.8284     -3683396.6      0             -3590486.7      26375.467    
   1105000   1398.6875     -3683604.4      0             -3590770.2      29536.724    
   1106000   1399.5051     -3683386        0             -3590497.5      26483.018    
   1107000   1398.4648     -3682764.2      0             -3589944.7      22663.316    
   1108000   1400.3278     -3683026.9      0             -3590083.9      24116.94     
   1109000   1398.9668     -3683504.9      0             -3590652.2      28637.766    
   1110000   1399.6813     -3683612.4      0             -3590712.2      28615.837    
   1111000   1399.4672     -3683037.4      0             -3590151.4      24098.676    
   1112000   1399.5147     -3682653.1      0             -3589764        22716.11     
   1113000   1401.0066     -3683401.3      0             -3590413.2      26398.743    
   1114000   1397.5028     -3683534.1      0             -3590778.6      29455.154    
   1115000   1401.7237     -3683157.7      0             -3590122        26548.108    
   1116000   1402.1656     -3682669.5      0             -3589604.4      22752.328    
   1117000   1401.2037     -3682934.3      0             -3589933.1      24171.988    
   1118000   1401.7618  