LAMMPS (7 Feb 2024 - Development - patch_7Feb2024_update1-147-g4d89741d8c)
  using 32 OpenMP thread(s) per MPI task
# Initialization
units       metal
dimension   3
boundary    p p p     # Periodic in x, y and free in z direction
atom_style  atomic

# User variables
variable annealtemp equal 1000
variable strikeangle equal 0
variable strikespeed equal 3606.17656613

# Computed variables
variable posx equal 42.885349000000005+(5*cos((90-${strikeangle}))*PI/180)
variable posx equal 42.885349000000005+(5*cos((90-0))*PI/180)
variable posz equal 710+(5*sin((90-${strikeangle})*PI/180))
variable posz equal 710+(5*sin((90-0)*PI/180))
variable posy equal 34.3068485
variable velx equal ${strikespeed}*cos((90-${strikeangle})*PI/180)
variable velx equal 3606.17656613*cos((90-${strikeangle})*PI/180)
variable velx equal 3606.17656613*cos((90-0)*PI/180)
variable velz equal ${strikespeed}*sin((90-${strikeangle})*PI/180)
variable velz equal 3606.17656613*sin((90-${strikeangle})*PI/180)
variable velz equal 3606.17656613*sin((90-0)*PI/180)

# Create Atom Structure (assuming diamond cubic lattice)
lattice     diamond 3.567 orient x 1 1 0 orient y 0 0 -1 orient z -1 1 0  # Diamond lattice constant for carbon in Angstroms with 1 0 0 x direction orientation.
Lattice spacing in x,y,z = 5.0444998 3.567 5.0444998
region      box block 0 20 0 20 0 200 units lattice
create_box  2 box
Created orthogonal box = (0 0 0) to (100.89 71.34 1008.9)
  2 by 2 by 16 MPI processor grid
region      slab block 0 20 0 20 60 140 units lattice
create_atoms 1 region slab
Created 513480 atoms
  using lattice units in orthogonal box = (0 0 0) to (100.89 71.34 1008.9)
  create_atoms CPU = 0.005 seconds

# Add tin atom
create_atoms 2 single ${posx} ${posy} ${posz} units lattice  # Position tin atom above the slab
create_atoms 2 single 42.8462472005361 ${posy} ${posz} units lattice  
create_atoms 2 single 42.8462472005361 34.3068485 ${posz} units lattice  
create_atoms 2 single 42.8462472005361 34.3068485 715 units lattice  
Created 0 atoms
  using lattice units in orthogonal box = (0 0 0) to (100.89 71.34 1008.9)
  create_atoms CPU = 0.000 seconds

# Define Potential
pair_style      hybrid tersoff lj/cut 2.5  # tersoff
pair_coeff      * * tersoff /home/stovey/work/projects/quantum-lab/ballistic-diamond/lammps/potentials/SiC.tersoff C C # You may need to adjust the file name depending on your LAMMPS distribution
Reading tersoff potential file /home/stovey/work/projects/quantum-lab/ballistic-diamond/lammps/potentials/SiC.tersoff with DATE: 2011-04-26
pair_coeff      1 2 lj/cut 0.01058 3.664 12.824 # Mixed LJ parameters for C-Sn interactions, adjust as necessary
pair_coeff      2 2 lj/cut 0.01029 3.55  # Example LJ parameters for Sn-Sn, adjust as needed


# Settings for carbon
mass        1 12.01
# Settings for tin
mass        2 118.71  # Mass of tin atom

# Create the atom groups
group           diamond type 1
513480 atoms in group diamond
group           tin type 2
0 atoms in group tin

velocity    diamond create 20 4928459 rot yes dist gaussian  # Initialize velocities
velocity    tin set 0.0 0.0 0.0 units box # Freeze for the warmup

# --------------------- #
# Diamond Equilibration #
# --------------------- #

# Define settings for dynamics
fix diamondNVT all nvt temp 300 300 $(100.0*dt)
fix diamondNVT all nvt temp 300 300 0.10000000000000000555
fix tinfreeze tin setforce 0.0 0.0 0.0

# Thermo output
thermo      1000                # Output thermo info every 1000 steps

# Dump settings for MD
dump equilibrate all custom 10000 /work/stovey/ballistic-diamond/tersoff-sweep/velocity-${strikespeed}/temperature-${annealtemp}/angle-${strikeangle}/equilibration.lammpstraj id type x y z vx vy vz
dump equilibrate all custom 10000 /work/stovey/ballistic-diamond/tersoff-sweep/velocity-3606.17656613/temperature-${annealtemp}/angle-${strikeangle}/equilibration.lammpstraj id type x y z vx vy vz
dump equilibrate all custom 10000 /work/stovey/ballistic-diamond/tersoff-sweep/velocity-3606.17656613/temperature-1000/angle-${strikeangle}/equilibration.lammpstraj id type x y z vx vy vz
dump equilibrate all custom 10000 /work/stovey/ballistic-diamond/tersoff-sweep/velocity-3606.17656613/temperature-1000/angle-0/equilibration.lammpstraj id type x y z vx vy vz
dump_modify equilibrate sort id

timestep 0.002

# Run Simulation 100 ps equilibration
run         50000              # Number of timesteps to simulate
Neighbor list info ...
  update: every = 1 steps, delay = 0 steps, check = yes
  max neighbors/atom: 2000, page size: 100000
  master list distance cutoff = 14.824
  ghost atom cutoff = 14.824
  binsize = 7.412, bins = 14 10 137
  4 neighbor lists, perpetual/occasional/extra = 4 0 0
  (1) pair tersoff, perpetual, skip from (4)
      attributes: full, newton on, cut 4.1
      pair build: skip
      stencil: none
      bin: none
  (2) pair lj/cut, perpetual, skip from (3)
      attributes: half, newton on
      pair build: skip
      stencil: none
      bin: none
  (3) neighbor class addition, perpetual
      attributes: half, newton on
      pair build: half/bin/atomonly/newton
      stencil: half/bin/3d
      bin: standard
  (4) neighbor class addition, perpetual
      attributes: full, newton on, cut 4.1
      pair build: full/bin/atomonly
      stencil: full/bin/3d
      bin: standard
Per MPI rank memory allocation (min/avg/max) = 67.92 | 108.7 | 169.7 Mbytes
   Step          Temp          E_pair         E_mol          TotEng         Press     
         0   20            -3778559.3      0             -3777231.9     -1843.8855    
      1000   158.7318      -3767833.1      0             -3757297.6      4732.5254    
      2000   308.32461     -3757960.2      0             -3737496        1220.7739    
      3000   303.58079     -3758316.3      0             -3738166.9      9049.0075    
      4000   297.53142     -3758261.4      0             -3738513.6      1721.4092    
      5000   296.81878     -3758549.7      0             -3738849.2      8190.5103    
      6000   299.41201     -3758390.6      0             -3738517.9      3020.0053    
      7000   301.46244     -3758392.1      0             -3738383.3      6660.2581    
      8000   300.7891      -3758306.8      0             -3738342.8      4885.8495    
      9000   299.97689     -3758423.6      0             -3738513.4      4746.8541    
     10000   298.33745     -3758480.3      0             -3738679        6977.4554    
     11000   299.24628     -3758340.6      0             -3738478.9      2669.8721    
     12000   299.80703     -3758374.8      0             -3738475.9      9638.7932    
     13000   300.52322     -3758115        0             -3738168.6      917.46112    
     14000   300.48956     -3758341.2      0             -3738397        9555.0518    
     15000   300.2714      -3758182.9      0             -3738253.2      1476.2613    
     16000   299.97167     -3758410.5      0             -3738500.6      8808.1763    
     17000   299.51415     -3758347.7      0             -3738468.2      2603.0261    
     18000   299.66809     -3758517        0             -3738627.3      7334.1312    
     19000   300.18039     -3758373.3      0             -3738449.6      4279.0681    
     20000   301.4808      -3758379.5      0             -3738369.5      5499.1273    
     21000   300.70681     -3758425.4      0             -3738466.8      6227.0775    
     22000   299.09492     -3758435.4      0             -3738583.7      3261.2161    
     23000   298.54703     -3758504.4      0             -3738689.2      8182.2642    
     24000   299.79924     -3758174        0             -3738275.6      1125.1983    
     25000   301.23692     -3758285.8      0             -3738292        9870.8339    
     26000   301.47235     -3758162        0             -3738152.5      1188.7775    
     27000   299.23247     -3758410.6      0             -3738549.9      9131.2577    
     28000   298.63082     -3758289.7      0             -3738468.9      2037.6241    
     29000   300.28789     -3758458.5      0             -3738527.6      7975.4617    
     30000   301.13317     -3758320.7      0             -3738333.8      3638.6494    
     31000   300.94094     -3758441.7      0             -3738467.5      6160.051     
     32000   299.72092     -3758491.9      0             -3738598.8      5429.8008    
     33000   299.46813     -3758475.3      0             -3738598.9      4234.1216    
     34000   300.24443     -3758470.8      0             -3738542.9      7520.242     
     35000   300.82162     -3758224.3      0             -3738258.1      2285.2832    
     36000   300.79743     -3758382.6      0             -3738417.9      9689.9309    
     37000   299.83631     -3758191.2      0             -3738290.3      901.74558    
     38000   299.14459     -3758393.8      0             -3738538.9      9497.0533    
     39000   299.94504     -3758194.3      0             -3738286.3      1719.4827    
     40000   301.03642     -3758380.1      0             -3738399.6      8579.031     
     41000   300.11372     -3758296.5      0             -3738377.3      2876.1254    
     42000   299.41601     -3758496.9      0             -3738624        6898.7245    
     43000   299.70205     -3758467.7      0             -3738575.8      4695.7244    
     44000   300.37091     -3758400.5      0             -3738464.2      5005.5189    
     45000   300.83737     -3758426.4      0             -3738459.1      6736.5796    
     46000   299.90315     -3758351.6      0             -3738446.4      3083.1743    
     47000   299.97854     -3758499.5      0             -3738589.2      8608.0421    
     48000   300.0457      -3758191.7      0             -3738277        1041.3619    
     49000   300.37942     -3758322.6      0             -3738385.7      9900.5588    
     50000   300.26299     -3758150.1      0             -3738220.9      1295.6764    
Loop time of 1472.76 on 2048 procs for 50000 steps with 513480 atoms

Performance: 5.867 ns/day, 4.091 hours/ns, 33.950 timesteps/s, 17.433 Matom-step/s
99.5% CPU use with 64 MPI tasks x 32 OpenMP threads

MPI task timing breakdown:
Section |  min time  |  avg time  |  max time  |%varavg| %total
---------------------------------------------------------------
Pair    | 0.050131   | 510.83     | 1283.2     |2640.6 | 34.69
Neigh   | 0.0012819  | 4.0682     | 10.537     | 241.6 |  0.28
Comm    | 0.029479   | 206.28     | 1151       |2539.4 | 14.01
Output  | 0.06037    | 0.16314    | 0.26957    |  15.4 |  0.01
Modify  | 13.191     | 745.71     | 1465.2     |2634.9 | 50.63
Other   |            | 5.718      |            |       |  0.39

Nlocal:        8023.12 ave       20144 max           0 min
Histogram: 32 0 8 0 0 0 0 0 0 24
Nghost:        26735.4 ave       64185 max           0 min
Histogram: 32 0 0 8 0 0 0 0 0 24
Neighs:              0 ave           0 max           0 min
Histogram: 64 0 0 0 0 0 0 0 0 0

Total # of neighbors = 0
Ave neighs/atom = 0
Neighbor list builds = 43
Dangerous builds = 0
undump equilibrate
# -------------------- #
# Collision simulation #
# -------------------- #

# Define settings for dynamics
velocity tin set -${velx} 0.0 -${velz} units box # Shoot the tin atom towards the diamond
velocity tin set -2.20814629443565e-13 0.0 -${velz} units box 
velocity tin set -2.20814629443565e-13 0.0 -3606.17656613 units box 
unfix tinfreeze

# Thermo output
thermo      1000                # Output thermo info every 1000 steps

# Dump settings for MD
dump collision all custom 100 /work/stovey/ballistic-diamond/tersoff-sweep/velocity-${strikespeed}/temperature-${annealtemp}/angle-${strikeangle}/collision.lammpstraj id type x y z vx vy vz
dump collision all custom 100 /work/stovey/ballistic-diamond/tersoff-sweep/velocity-3606.17656613/temperature-${annealtemp}/angle-${strikeangle}/collision.lammpstraj id type x y z vx vy vz
dump collision all custom 100 /work/stovey/ballistic-diamond/tersoff-sweep/velocity-3606.17656613/temperature-1000/angle-${strikeangle}/collision.lammpstraj id type x y z vx vy vz
dump collision all custom 100 /work/stovey/ballistic-diamond/tersoff-sweep/velocity-3606.17656613/temperature-1000/angle-0/collision.lammpstraj id type x y z vx vy vz
dump_modify collision sort id

timestep 0.0001
# Run Simulation 5 ps collision
run         50000              # Number of timesteps to simulate
Per MPI rank memory allocation (min/avg/max) = 67.92 | 108.7 | 169.7 Mbytes
   Step          Temp          E_pair         E_mol          TotEng         Press     
     50000   300.26299     -3758150.1      0             -3738220.9      1295.6764    
     51000   305.78216     -3758965.5      0             -3738670        835.4038     
     52000   299.85251     -3759176.3      0             -3739274.4      586.11701    
     53000   297.16711     -3759350.7      0             -3739627        560.33733    
     54000   297.70849     -3759390.2      0             -3739630.5      830.44605    
     55000   299.65739     -3759245        0             -3739356.1      1522.7027    
     56000   302.33555     -3759180.6      0             -3739113.9      2252.4804    
     57000   302.27261     -3759192.9      0             -3739130.4      2782.3825    
     58000   300.08139     -3759317.4      0             -3739400.3      3059.189     
     59000   298.85886     -3759505.5      0             -3739669.5      3529.3419    
     60000   298.60942     -3759570.3      0             -3739750.9      4287.5664    
     61000   299.05674     -3759468.7      0             -3739619.6      4784.4016    
     62000   300.89884     -3759395.6      0             -3739424.2      5283.8166    
     63000   301.55244     -3759372.9      0             -3739358.2      5881.8979    
     64000   301.06878     -3759469.9      0             -3739487.3      6279.4535    
     65000   298.78149     -3759512.5      0             -3739681.6      6889.637     
     66000   298.31386     -3759558.7      0             -3739758.9      7334.6211    
     67000   299.20844     -3759505        0             -3739645.9      7866.5593    
     68000   300.47733     -3759389.5      0             -3739446.1      8251.0252    
     69000   301.16682     -3759315.2      0             -3739326        8680.2253    
     70000   300.91603     -3759349.6      0             -3739377.1      8940.6649    
     71000   299.81646     -3759433.9      0             -3739534.4      9321.6923    
     72000   298.42319     -3759452.4      0             -3739645.3      9528.1369    
     73000   299.71036     -3759503.5      0             -3739611        9778.3457    
     74000   299.97133     -3759375.3      0             -3739465.5      9936.6832    
     75000   301.31719     -3759346.1      0             -3739346.9      9847.5647    
     76000   301.25996     -3759364        0             -3739368.7      9491.2615    
     77000   299.8773      -3759423.1      0             -3739519.5      8776.0978    
     78000   298.6885      -3759489.8      0             -3739665.1      8076.4797    
     79000   298.85203     -3759518.7      0             -3739683.2      7634.8857    
     80000   299.83923     -3759476.3      0             -3739575.2      7317.0353    
     81000   301.22239     -3759444.5      0             -3739451.7      6699.8333    
     82000   300.93322     -3759404        0             -3739430.4      5996.6645    
     83000   300.69535     -3759485.8      0             -3739528        5516.7689    
     84000   299.11487     -3759501.7      0             -3739648.8      4982.7519    
     85000   298.97749     -3759522.5      0             -3739678.7      4451.4504    
     86000   299.37558     -3759449.3      0             -3739579        4012.7544    
     87000   300.85797     -3759391.5      0             -3739422.9      3418.7045    
     88000   301.03662     -3759301.5      0             -3739321        2982.1923    
     89000   300.2021      -3759254.7      0             -3739329.5      2485.3705    
     90000   299.41987     -3759281.8      0             -3739408.6      2158.8035    
     91000   299.65961     -3759343.7      0             -3739454.6      1756.0131    
     92000   299.48557     -3759280        0             -3739402.4      1495.7323    
     93000   300.19603     -3759199.7      0             -3739275        1090.7407    
     94000   301.09176     -3759153.9      0             -3739169.8      913.77774    
     95000   300.9191      -3759140.6      0             -3739167.9      673.43142    
     96000   300.36011     -3759194.8      0             -3739259.2      570.30216    
     97000   299.20378     -3759217.2      0             -3739358.4      689.42653    
     98000   299.25554     -3759254.4      0             -3739392.1      1076.306     
     99000   300.05366     -3759275.2      0             -3739359.9      1790.7032    
    100000   300.62261     -3759279.2      0             -3739326.2      2437.0734    
Loop time of 1489.8 on 2048 procs for 50000 steps with 513480 atoms

Performance: 0.290 ns/day, 82.767 hours/ns, 33.562 timesteps/s, 17.233 Matom-step/s
99.6% CPU use with 64 MPI tasks x 32 OpenMP threads

MPI task timing breakdown:
Section |  min time  |  avg time  |  max time  |%varavg| %total
---------------------------------------------------------------
Pair    | 0.048618   | 509.27     | 1277.3     |2631.7 | 34.18
Neigh   | 5.674e-05  | 0.1877     | 0.48855    |  51.8 |  0.01
Comm    | 0.027892   | 205.02     | 1130.5     |2498.1 | 13.76
Output  | 4.9766     | 15.473     | 26.265     | 162.0 |  1.04
Modify  | 17.274     | 743.57     | 1456.4     |2614.4 | 49.91
Other   |            | 16.28      |            |       |  1.09

Nlocal:        8023.12 ave       20072 max           0 min
Histogram: 32 0 8 0 0 0 0 0 0 24
Nghost:        26736.8 ave       64161 max           0 min
Histogram: 32 0 0 8 0 0 0 0 0 24
Neighs:              0 ave           0 max           0 min
Histogram: 64 0 0 0 0 0 0 0 0 0

Total # of neighbors = 0
Ave neighs/atom = 0
Neighbor list builds = 2
Dangerous builds = 0
undump collision
# -------------------- #
# Annealing Simulation #
# -------------------- #

# Define settings for dynamics
unfix diamondNVT
fix diamondNVT2 all nvt temp ${annealtemp} ${annealtemp} $(100.0*dt)
fix diamondNVT2 all nvt temp 1000 ${annealtemp} $(100.0*dt)
fix diamondNVT2 all nvt temp 1000 1000 $(100.0*dt)
fix diamondNVT2 all nvt temp 1000 1000 0.010000000000000000208

# Thermo output
thermo      1000                # Output thermo info every 1000 steps

# Dump settings for MD
dump anneal all custom 10000 /work/stovey/ballistic-diamond/tersoff-sweep/velocity-${strikespeed}/temperature-${annealtemp}/angle-${strikeangle}/annealing.lammpstraj id type x y z vx vy vz
dump anneal all custom 10000 /work/stovey/ballistic-diamond/tersoff-sweep/velocity-3606.17656613/temperature-${annealtemp}/angle-${strikeangle}/annealing.lammpstraj id type x y z vx vy vz
dump anneal all custom 10000 /work/stovey/ballistic-diamond/tersoff-sweep/velocity-3606.17656613/temperature-1000/angle-${strikeangle}/annealing.lammpstraj id type x y z vx vy vz
dump anneal all custom 10000 /work/stovey/ballistic-diamond/tersoff-sweep/velocity-3606.17656613/temperature-1000/angle-0/annealing.lammpstraj id type x y z vx vy vz
dump_modify anneal sort id

timestep 0.001
# Run Simulation 3 ns annealing
run        3000000              # Number of timesteps to simulate
Per MPI rank memory allocation (min/avg/max) = 67.92 | 108.7 | 169.7 Mbytes
   Step          Temp          E_pair         E_mol          TotEng         Press     
    100000   300.62261     -3759279.2      0             -3739326.2      2437.0734    
    101000   1004.8033     -3710981.1      0             -3644289.9      28719.858    
    102000   999.84498     -3711848.1      0             -3645486        20037.323    
    103000   1002.2973     -3709812.1      0             -3643287.3      8998.1216    
    104000   1001.9042     -3710860.4      0             -3644361.7      12288.029    
    105000   999.24449     -3711826.9      0             -3645504.7      27479.745    
    106000   999.56595     -3711825.8      0             -3645482.2      26413.814    
    107000   998.59847     -3710632.3      0             -3644353        10880.827    
    108000   1000.5228     -3710113.9      0             -3643706.8      9318.0296    
    109000   999.78837     -3711962.4      0             -3645604.1      22916.401    
    110000   1000.6289     -3711337.3      0             -3644923.2      28566.339    
    111000   1000.2464     -3711519        0             -3645130.3      17404.79     
    112000   999.47807     -3709608.5      0             -3643270.8      8871.9539    
    113000   1000.2498     -3711132.4      0             -3644743.4      13432.849    
    114000   998.67075     -3711679.2      0             -3645395        27642.233    
    115000   1000.5802     -3711950.4      0             -3645539.5      25864.301    
    116000   998.80123     -3710454.9      0             -3644162.1      10419.944    
    117000   998.88081     -3710128.4      0             -3643830.3      9644.0437    
    118000   996.49855     -3711734.2      0             -3645594.2      23393.379    
    119000   1001.7047     -3711412.6      0             -3644927.1      28265.575    
    120000   998.95851     -3711408.7      0             -3645105.5      15554.551    
    121000   1000.7454     -3709756.4      0             -3643334.6      8782.091     
    122000   1000.2326     -3711494.8      0             -3645107        15368.012    
    123000   999.80314     -3711560.3      0             -3645201        27647.661    
    124000   1000.9267     -3711987.6      0             -3645553.7      25169.962    
    125000   998.33262     -3710539.7      0             -3644278        10315.124    
    126000   999.89777     -3710360.4      0             -3643994.8      9788.3022    
    127000   1001.0581     -3711965.6      0             -3645523        24750.116    
    128000   1000.5117     -3711554.3      0             -3645148        28045.988    
    129000   997.60152     -3711209.6      0             -3644996.4      14903.663    
    130000   1000.6404     -3709827.9      0             -3643413        8755.9543    
    131000   999.34432     -3711678.1      0             -3645349.3      17848.439    
    132000   1000.4444     -3711488.7      0             -3645086.9      27939.388    
    133000   1001.6209     -3712029.4      0             -3645549.5      23520.406    
    134000   999.53386     -3710192.4      0             -3643850.9      10146.286    
    135000   1001.633      -3710380.8      0             -3643900        10353.107    
    136000   999.16043     -3711948.1      0             -3645631.5      25423.249    
    137000   999.16432     -3711628.8      0             -3645311.9      27880.414    
    138000   1000.3002     -3711324.1      0             -3644931.8      13978.037    
    139000   999.52446     -3709869.7      0             -3643528.9      8824.2439    
    140000   999.95623     -3711662.7      0             -3645293.2      19759.128    
    141000   1001.2513     -3711445.6      0             -3644990.2      28207.84     
    142000   1001.1476     -3711838.8      0             -3645390.2      21333.616    
    143000   1001.6488     -3710149.8      0             -3643668        9972.097     
    144000   1001.1235     -3710664.4      0             -3644217.5      10996.433    
    145000   996.15412     -3711813.8      0             -3645696.7      25626.813    
    146000   1001.7181     -3711710.6      0             -3645224.2      27645.122    
    147000   999.27565     -3710895.6      0             -3644571.3      12884.152    
    148000   998.60142     -3709931        0             -3643651.5      8831.9681    
    149000   999.65395     -3711883.5      0             -3645534.1      20605.289    
    150000   998.85412     -3711479.7      0             -3645183.4      28317.214    
    151000   1001.09       -3711624.2      0             -3645179.5      19181.418    
    152000   1000.0799     -3709793.4      0             -3643415.8      9598.0453    
    153000   1000.0905     -3710917.7      0             -3644539.4      12323.709    
    154000   999.3655      -3711765.7      0             -3645435.4      26119.507    
    155000   1000.2464     -3711860.7      0             -3645472        27105.488    
    156000   1000.5215     -3710822        0             -3644415        12364.357    
    157000   999.72948     -3709889        0             -3643534.6      8810.149     
    158000   1000.8171     -3711731.5      0             -3645304.9      21626.754    
    159000   1001.0792     -3711529.1      0             -3645085.1      28366.347    
    160000   1001.3497     -3711655.5      0             -3645193.5      17722.59     
    161000   1002.0011     -3709849.2      0             -3643344        9276.0979    
    162000   999.41596     -3711248.7      0             -3644915.1      14339.748    
    163000   1000.7195     -3711505.4      0             -3645085.3      26537.81     
    164000   998.44445     -3711866.8      0             -3645597.7      26132.348    
    165000   1000.7578     -3710780.4      0             -3644357.7      12004.715    
    166000   1000.0435     -3710155.4      0             -3643780.1      9034.8982    
    167000   999.47727     -3711813.6      0             -3645475.9      22729.832    
    168000   1001.4795     -3711589.3      0             -3645118.7      28494.299    
    169000   1000.2373     -3711438.5      0             -3645050.3      16871.238    
    170000   999.90398     -3709760.2      0             -3643394.2      9079.943     
    171000   1001.8904     -3711378.4      0             -3644880.5      16450.581    
    172000   999.34859     -3711514.4      0             -3645185.3      27092.858    
    173000   1001.3702     -3712004.4      0             -3645541.1      24485.38     
    174000   998.59845     -3710453.5      0             -3644174.2      11513.177    
    175000   1001.7216     -3710250.8      0             -3643764.2      9418.6611    
    176000   1000.8374     -3711978.9      0             -3645550.9      23377.15     
    177000   1001.4563     -3711656.8      0             -3645187.8      28544.469    
    178000   1001.0062     -3711364.7      0             -3644925.6      15785.697    
    179000   1000.8754     -3709988.9      0             -3643558.4      8807.9272    
    180000   999.94949     -3711576.3      0             -3645207.2      17860.519    
    181000   998.00351     -3711488.1      0             -3645248.3      27415.763    
    182000   1001.0564     -3711852.4      0             -3645409.9      22481.993    
    183000   1001.9237     -3710273.4      0             -3643773.3      11145.302    
    184000   1000.2759     -3710441.3      0             -3644050.6      10254.397    
    185000   999.05989     -3711883.9      0             -3645573.9      23914.271    
    186000   999.82085     -3711585.5      0             -3645225        28315.435    
    187000   1000.7506     -3711286.4      0             -3644864.2      14724.398    
    188000   999.78463     -3709890        0             -3643532        8665.2753    
    189000   1002.2009     -3711666        0             -3645147.6      18805.44     
    190000   1000.2346     -3711644        0             -3645256.1      27791.382    
    191000   1002.0095     -3711748.2      0             -3645242.4      20676.421    
    192000   999.62339     -3710201.2      0             -3643853.8      10495.193    
    193000   999.63536     -3710698.6      0             -3644350.4      11717.894    
    194000   999.11687     -3711749.4      0             -3645435.7      24599.852    
    195000   999.23479     -3711726.7      0             -3645405.1      27869.069    
    196000   1000.6633     -3711120.5      0             -3644704.1      14203.735    
    197000   999.74022     -3709941        0             -3643585.8      8528.4536    
    198000   998.77865     -3711815.9      0             -3645524.6      19861.308    
    199000   1000.2045     -3711497.4      0             -3645111.5      28209.547    
    200000   1001.3182     -3711769.7      0             -3645309.9      19478.335    
    201000   998.46079     -3710046.2      0             -3643776        10027.976    
    202000   999.31141     -3710957        0             -3644630.4      13526.449    
    203000   998.46948     -3711620.1      0             -3645349.3      25246.483    
    204000   999.77934     -3711753.1      0             -3645395.4      26827.29     
    205000   999.75331     -3710977.7      0             -3644621.7      13578.775    
    206000   999.67206     -3709856.5      0             -3643505.9      8596.8804    
    207000   1001.2112     -3711868.5      0             -3645415.7      20867.444    
    208000   999.81597     -3711561.5      0             -3645201.3      28541.501    
    209000   1002.1979     -3711544.7      0             -3645026.5      18572.181    
    210000   999.63099     -3710016.9      0             -3643669        9498.2194    
    211000   999.78744     -3711258.7      0             -3644900.4      15153.71     
    212000   1000.1635     -3711577.1      0             -3645193.9      25983.685    
    213000   998.73879     -3711808.5      0             -3645519.8      25100.671    
    214000   1000.967      -3710725.1      0             -3644288.5      12949.806    
    215000   999.28075     -3710150        0             -3643825.3      8895.6969    
    216000   999.74888     -3711791.4      0             -3645435.7      21580.275    
    217000   1000.0645     -3711561.9      0             -3645185.2      28702.044    
    218000   1000.1157     -3711655        0             -3645275        17356.743    
    219000   1002.4197     -3709961.1      0             -3643428.1      9152.233     
    220000   999.4311      -3711282.8      0             -3644948.2      16276.222    
    221000   999.59924     -3711521.7      0             -3645176        26641.279    
    222000   1000.3801     -3711723.3      0             -3645325.7      23439.19     
    223000   1000.58       -3710532        0             -3644121.1      12315.701    
    224000   1000.5135     -3710384.7      0             -3643978.3      9861.4243    
    225000   1000.8214     -3711660.1      0             -3645233.2      22309.555    
    226000   1001.787      -3711674.9      0             -3645183.9      28722.45     
    227000   998.73077     -3711539.9      0             -3645251.8      16499.915    
    228000   1000.088      -3709746.6      0             -3643368.4      8734.3528    
    229000   1000.5248     -3711516.6      0             -3645109.4      17267.886    
    230000   998.72956     -3711663.2      0             -3645375.2      27192.994    
    231000   1000.4993     -3711778.7      0             -3645373.2      22023.538    
    232000   1002.1834     -3710476.1      0             -3643958.8      11513.087    
    233000   999.50113     -3710469.2      0             -3644130        11445.222    
    234000   1000.1063     -3711782.6      0             -3645403.2      23177.802    
    235000   1000.5141     -3711736.9      0             -3645330.4      28160.31     
    236000   999.53408     -3711430.2      0             -3645088.8      15789.469    
    237000   1001.1974     -3709612.7      0             -3643160.8      8556.3316    
    238000   1000.448      -3711553.7      0             -3645151.6      18412.317    
    239000   1000.0344     -3711435.5      0             -3645060.8      27871.741    
    240000   1000.4334     -3711731.6      0             -3645330.4      20977.061    
    241000   1001.4881     -3710381.4      0             -3643910.3      10823.769    
    242000   1000.2065     -3710909.8      0             -3644523.8      12846.924    
    243000   998.59069     -3711677.8      0             -3645399        23993.918    
    244000   1000.7209     -3711789.6      0             -3645369.4      27005.797    
    245000   1000.5257     -3711153.1      0             -3644745.8      15151.003    
    246000   999.27475     -3709928.7      0             -3643604.4      8489.6271    
    247000   1002.6053     -3711704.2      0             -3645158.9      19200.572    
    248000   1000.5661     -3711539.7      0             -3645129.8      28368.85     
    249000   1000.2491     -3711675.2      0             -3645286.3      19938.703    
    250000   999.33582     -3710173.8      0             -3643845.5      10161.967    
    251000   999.34882     -3710929.2      0             -3644600        14127.24     
    252000   1000.1859     -3711602.4      0             -3645217.7      24826.338    
    253000   1000.0955     -3711614.7      0             -3645236        25546.754    
    254000   1000.0337     -3710952.8      0             -3644578.2      14274.184    
    255000   998.85017     -3710146.4      0             -3643850.3      8953.2576    
    256000   1001.7851     -3711811.6      0             -3645320.8      19925.903    
    257000   1002.6491     -3711695.4      0             -3645147.2      28580.7      
    258000   1001.2725     -3711606.8      0             -3645150        18958.465    
    259000   1000.2286     -3710150.6      0             -3643763        9527.2212    
    260000   1002.3495     -3711287.6      0             -3644759.3      15075.41     
    261000   998.11903     -3711558.8      0             -3645311.3      25700.584    
    262000   999.55191     -3711761.2      0             -3645418.6      24121.777    
    263000   1001.4684     -3710836.4      0             -3644366.6      13454.137    
    264000   999.13078     -3710291.4      0             -3643976.7      9939.5553    
    265000   998.48782     -3711650.4      0             -3645378.4      20783.335    
    266000   999.45605     -3711601.7      0             -3645265.4      28524.374    
    267000   999.13441     -3711573.7      0             -3645258.8      18161.206    
    268000   1000.5247     -3709966.7      0             -3643559.5      8974.4973    
    269000   999.00767     -3711290        0             -3644983.5      16039.154    
    270000   1000.2997     -3711702.7      0             -3645310.5      26424.019    
    271000   999.8219      -3711730.7      0             -3645370.1      23071.826    
    272000   998.21043     -3710690.2      0             -3644436.6      12542.23     
    273000   1000.4872     -3710494.6      0             -3644089.9      11188.086    
    274000   1001.0992     -3711646.3      0             -3645201        21831.3      
    275000   999.22902     -3711542.2      0             -3645221        27989.668    
    276000   998.66105     -3711666.6      0             -3645383.1      17363.286    
    277000   1001.3273     -3710065.2      0             -3643604.7      8664.0343    
    278000   1000.2744     -3711490.5      0             -3645099.9      17013.255    
    279000   999.37906     -3711630        0             -3645298.8      27293.97     
    280000   1000.7389     -3711541.4      0             -3645120        22200.445    
    281000   999.08071     -3710708.8      0             -3644397.5      11670.326    
    282000   1001.8321     -3710494.8      0             -3644000.8      12464.183    
    283000   998.63345     -3711747.9      0             -3645466.2      22738.079    
    284000   999.48638     -3711692.4      0             -3645354.1      26925.585    
    285000   1000.6149     -3711307.2      0             -3644894        16494.104    
    286000   997.94912     -3709999.6      0             -3643763.4      8757.2156    
    287000   999.81392     -3711445.1      0             -3645085.1      17778.084    
    288000   999.72042     -3711613.4      0             -3645259.6      27920.686    
    289000   1001.3926     -3711545.4      0             -3645080.6      21223.37     
    290000   999.74838     -3710282.6      0             -3643927        10859.91     
    291000   998.98374     -3710745.2      0             -3644440.3      13294.554    
    292000   1000.494      -3711757.6      0             -3645352.4      23681.017    
    293000   1001.326      -3711609.8      0             -3645149.4      25842.08     
    294000   998.47891     -3711099.2      0             -3644827.8      15560.07     
    295000   1000.3701     -3710015.8      0             -3643618.8      9305.7666    
    296000   1002.0128     -3711657.7      0             -3645151.8      18522.793    
    297000   998.50086     -3711560.8      0             -3645287.9      28220.414    
    298000   999.99599     -3711748.4      0             -3645376.3      20312.348    
    299000   997.74982     -3710115.1      0             -3643892.1      10101.027    
    300000   1001.6138     -3710979.8      0             -3644500.3      14132.633    
    301000   998.83221     -3711641.6      0             -3645346.7      24629.953    
    302000   999.70524     -3711675.2      0             -3645322.4      24723.495    
    303000   998.47557     -3711049.2      0             -3644778        14563.618    
    304000   999.09115     -3710143.5      0             -3643831.4      10219.793    
    305000   1001.1376     -3711620.6      0             -3645172.7      19543.295    
    306000   999.81293     -3711563.6      0             -3645203.7      28115.004    
    307000   999.50087     -3711691.8      0             -3645352.6      19559.922    
    308000   1000.1044     -3710206.3      0             -3643827        9455.7874    
    309000   1000.7308     -3711152.9      0             -3644732        14937.034    
    310000   1001.1864     -3711605.9      0             -3645154.8      25696.708    
    311000   1002.0161     -3711555.3      0             -3645049.1      23988.806    
    312000   1000.4002     -3710812.1      0             -3644413.2      13701.224    
    313000   998.95122     -3710320.3      0             -3644017.6      11107.083    
    314000   999.83312     -3711570.1      0             -3645208.8      20509.899    
    315000   999.49743     -3711477.5      0             -3645138.5      27563.472    
    316000   998.96162     -3711454.7      0             -3645151.2      18729.978    
    317000   1001.1342     -3709973.8      0             -3643526.1      9211.9992    
    318000   999.84825     -3711183.4      0             -3644821.1      15669.474    
    319000   1000.8718     -3711679.1      0             -3645248.9      26588.089    
    320000   1000.4449     -3711636.4      0             -3645234.5      23108.324    
    321000   1000.0125     -3710707.3      0             -3644334.1      12629.956    
    322000   1001.4734     -3710498.3      0             -3644028.1      12037.112    
    323000   999.96281     -3711575        0             -3645205.1      21475.181    
    324000   999.15501     -3711636.5      0             -3645320.2      26671.159    
    325000   998.89037     -3711597.9      0             -3645299.1      17677.236    
    326000   999.95636     -3710029.7      0             -3643660.3      9345.5757    
    327000   998.99628     -3711480.8      0             -3645175        16378.446    
    328000   999.28781     -3711670.2      0             -3645345.1      27270.88     
    329000   1000.2965     -3711638.4      0             -3645246.4      22319.012    
    330000   999.00781     -3710642.5      0             -3644335.9      11612.698    
    331000   1000.3517     -3710439.8      0             -3644044.1      12704.566    
    332000   999.90983     -3711662.9      0             -3645296.5      22620.405    
    333000   998.79583     -3711608.5      0             -3645316.1      25884.722    
    334000   1000.1055     -3711464.8      0             -3645085.4      16727.736    
    335000   1000.8196     -3710130.7      0             -3643703.9      9892.2022    
    336000   998.43612     -3711387.3      0             -3645118.7      17315.594    
    337000   999.31153     -3711613        0             -3645286.4      27575.901    
    338000   1001.5996     -3711707.6      0             -3645229.1      21630.242    
    339000   996.9846      -3710355.3      0             -3644183        10782.755    
    340000   999.15823     -3710790.1      0             -3644473.6      13374.553    
    341000   1000.2546     -3711641        0             -3645251.7      23725.585    
    342000   999.63031     -3711539.8      0             -3645192        25175.105    
    343000   999.72832     -3711357.3      0             -3645003        15665.287    
    344000   996.8051      -3710239.8      0             -3644079.5      10492.677    
    345000   1001.4063     -3711596        0             -3645130.2      18326.96     
    346000   998.10743     -3711618.2      0             -3645371.4      27391.996    
    347000   998.20451     -3711685.5      0             -3645432.3      20712.878    
    348000   1001.0925     -3710254.2      0             -3643809.3      10127.328    
    349000   1000.7144     -3710828.5      0             -3644408.7      14018.872    
    350000   999.45622     -3711667.1      0             -3645330.8      24820.112    
    351000   1001.3236     -3711485.8      0             -3645025.6      24552.419    
    352000   1000.6728     -3711005.2      0             -3644588.2      14631.871    
    353000   1000.0307     -3710379.3      0             -3644004.9      11107.274    
    354000   999.36427     -3711593.5      0             -3645263.3      19254.787    
    355000   1000.5876     -3711385.1      0             -3644973.8      27013.122    
    356000   1001.7864     -3711554.8      0             -3645063.8      19854.033    
    357000   1000.148      -3710163.9      0             -3643781.7      9981.2431    
    358000   1000.8529     -3711119.9      0             -3644690.9      14742.398    
    359000   999.22622     -3711598.1      0             -3645277.1      25817.246    
    360000   999.5424      -3711663.4      0             -3645321.4      23805.714    
    361000   999.14631     -3711025.7      0             -3644710        13431.198    
    362000   1000.5677     -3710507.2      0             -3644097.1      11714.097    
    363000   1000.0386     -3711758.4      0             -3645383.5      20373.023    
    364000   998.92697     -3711412.2      0             -3645111.1      26425.927    
    365000   999.00137     -3711532.4      0             -3645226.3      18805.112    
    366000   999.2941      -3710281.9      0             -3643956.3      10022.678    
    367000   998.58524     -3711194.3      0             -3644915.8      15479.41     
    368000   999.68218     -3711651.5      0             -3645300.2      26459.905    
    369000   1001.5919     -3711591.3      0             -3645113.3      23243.563    
    370000   1002.1919     -3710807        0             -3644289.1      12343.5      
    371000   999.25491     -3710603.7      0             -3644280.8      12273.391    
    372000   997.70768     -3711556.3      0             -3645336.1      21635.718    
    373000   1001.1108     -3711460.9      0             -3645014.8      25950.151    
    374000   1001.036      -3711552.5      0             -3645111.4      17743.897    
    375000   1001.8641     -3710122        0             -3643625.9      10489.364    
    376000   999.52828     -3711334.9      0             -3644993.8      16360.036    
    377000   997.74233     -3711617.1      0             -3645394.6      26684.693    
    378000   1000.8768     -3711548.5      0             -3645117.9      22429.492    
    379000   1000.1925     -3710478.6      0             -3644093.5      11559.709    
    380000   999.25752     -3710634        0             -3644310.9      12796.483    
    381000   997.87059     -3711717.8      0             -3645486.7      22849.2      
    382000   998.54122     -3711489.7      0             -3645214.2      25394.797    
    383000   998.89118     -3711314.8      0             -3645016        16626.477    
    384000   1000.1816     -3710078.1      0             -3643693.7      10934.514    
    385000   999.88738     -3711482.1      0             -3645117.2      17366.505    
    386000   999.32347     -3711443.6      0             -3645116.1      26692.232    
    387000   999.55408     -3711731.9      0             -3645389.1      21615.562    
    388000   1002.2392     -3710378.1      0             -3643857.1      11006.265    
    389000   1000.4112     -3710851.8      0             -3644452.1      13388.121    
    390000   999.74445     -3711566.2      0             -3645210.8      24169.425    
    391000   997.63054     -3711548.7      0             -3645333.6      24846.454    
    392000   1000.0446     -3711108.6      0             -3644733.3      15407.256    
    393000   999.77903     -3710315.7      0             -3643958        11187.419    
    394000   1000.7607     -3711586.1      0             -3645163.3      18398.009    
    395000   1000.7345     -3711492.8      0             -3645071.7      26402.02     
    396000   1000.7819     -3711608.2      0             -3645183.9      20748.797    
    397000   1002.3986     -3710310.5      0             -3643778.9      10799.501    
    398000   1000.127      -3710799.2      0             -3644418.4      13992.315    
    399000   1001.6063     -3711800.5      0             -3645321.5      24957.976    
    400000   998.1398      -3711512.2      0             -3645263.3      24302.569    
    401000   999.2806      -3711082.1      0             -3644757.4      14103.897    
    402000   1002.4389     -3710436.6      0             -3643902.3      11630.859    
    403000   998.6578      -3711675.5      0             -3645392.2      19533.771    
    404000   999.89996     -3711575.6      0             -3645209.9      26117.634    
    405000   999.56296     -3711616.9      0             -3645273.5      19700.137    
    406000   1000.1179     -3710275.2      0             -3643895        10817.073    
    407000   1001.8663     -3711141.6      0             -3644645.4      14757.249    
    408000   998.0878      -3711621.7      0             -3645376.2      25569.894    
    409000   1000.2825     -3711617.8      0             -3645226.7      23767.449    
    410000   1000.5161     -3710907.2      0             -3644500.6      13184.912    
    411000   999.79985     -3710351.3      0             -3643992.2      12082.416    
    412000   1001.3148     -3711591.7      0             -3645132.1      20887.691    
    413000   1000.4045     -3711479        0             -3645079.7      25830.527    
    414000   1001.6443     -3711492.8      0             -3645011.3      18672.903    
    415000   1000.4221     -3710283.3      0             -3643882.9      10994.068    
    416000   999.04415     -3711082.1      0             -3644773.2      15622.516    
    417000   1000.3075     -3711472.1      0             -3645079.3      25887.048    
    418000   998.51358     -3711889.4      0             -3645615.7      23091.057    
    419000   1000.753      -3710693.2      0             -3644270.9      12418.696    
    420000   999.04459     -3710461.3      0             -3644152.4      12456.461    
    421000   1002.8786     -3711716.3      0             -3645152.8      22093.198    
    422000   999.29738     -3711611.8      0             -3645286.1      25375.082    
    423000   1000.7157     -3711531.6      0             -3645111.7      17410.98     
    424000   998.05297     -3710299.6      0             -3644056.5      11215.937    
    425000   998.90655     -3711353        0             -3645053.2      16535.591    
    426000   998.98508     -3711638.1      0             -3645333.1      25897.887    
    427000   1000.7583     -3711565.2      0             -3645142.5      22473.872    
    428000   998.9677      -3710655.9      0             -3644352        11865.32     
    429000   997.4037      -3710693.8      0             -3644493.8      12821.1      
    430000   1000.2173     -3711738.3      0             -3645351.5      23214.852    
    431000   1000.1826     -3711466.4      0             -3645082        25146.302    
    432000   999.14118     -3711289.2      0             -3644973.8      16178.197    
    433000   998.09458     -3710381.9      0             -3644136        11327.809    
    434000   1000.7663     -3711287        0             -3644863.8      17619.948    
    435000   999.30163     -3711627.2      0             -3645301.1      25825.619    
    436000   1000.8547     -3711643.4      0             -3645214.4      21520.068    
    437000   1000.0438     -3710453.3      0             -3644078        11659.458    
    438000   997.90751     -3710775.4      0             -3644542        13382.231    
    439000   1001.1527     -3711556        0             -3645107.1      24049.491    
    440000   1000.2325     -3711553.7      0             -3645165.9      24775.048    
    441000   1001.3222     -3711034.3      0             -3644574.2      15075.368    
    442000   1000.4624     -3710323.7      0             -3643920.7      11647.743    
    443000   998.11896     -3711386.4      0             -3645138.8      18778.348    
    444000   997.79634     -3711527.7      0             -3645301.6      25679.851    
    445000   999.48806     -3711569.9      0             -3645231.5      20577.58     
    446000   998.80008     -3710360.9      0             -3644068.2      11550.03     
    447000   1000.4827     -3710838.4      0             -3644434        14101.522    
    448000   1001.4841     -3711725.7      0             -3645254.8      24590.041    
    449000   1001.5583     -3711572.3      0             -3645096.5      24341.242    
    450000   999.41553     -3710918.8      0             -3644585.2      14066.383    
    451000   999.03676     -3710439.5      0             -3644131.1      11863.148    
    452000   1000.2667     -3711557        0             -3645166.9      20111.11     
    453000   999.20466     -3711593.9      0             -3645274.3      25573.992    
    454000   1001.0954     -3711527.4      0             -3645082.3      19447.962    
    455000   1000.1985     -3710337.2      0             -3643951.7      11599.201    
    456000   999.57525     -3711030.5      0             -3644686.4      14826.571    
    457000   1000.9467     -3711645.8      0             -3645210.6      24955.737    
    458000   1000.8603     -3711680.7      0             -3645251.2      23798.734    
    459000   998.19549     -3710851        0             -3644598.4      13282.095    
    460000   999.00085     -3710536.8      0             -3644230.8      12070.498    
    461000   999.55018     -3711495.1      0             -3645152.6      21306.74     
    462000   999.41852     -3711522.3      0             -3645188.6      25414.575    
    463000   999.26659     -3711414.6      0             -3645091        18131.334    
    464000   999.31344     -3710229.1      0             -3643902.3      11647.344    
    465000   999.30438     -3711237.4      0             -3644911.2      15801.906    
    466000   1000.3054     -3711602.6      0             -3645210        25151.602    
    467000   1000.2426     -3711783.9      0             -3645395.4      22985.438    
    468000   1000.2527     -3710624.2      0             -3644235        12783.664    
    469000   1000.8872     -3710558.9      0             -3644127.6      12467.621    
    470000   1000.7893     -3711575.3      0             -3645150.5      22332.25     
    471000   998.61918     -3711384.1      0             -3645103.4      25263.193    
    472000   1000.0831     -3711317.4      0             -3644939.5      16974.748    
    473000   1000.2976     -3710430.7      0             -3644038.6      11605.906    
    474000   997.83721     -3711329.6      0             -3645100.8      16871.02     
    475000   999.0034      -3711452.5      0             -3645146.3      25254.69     
    476000   999.69151     -3711535        0             -3645183.1      22231.486    
    477000   1002.5459     -3710597.2      0             -3644055.8      12519.685    
    478000   1000.0819     -3710659.1      0             -3644281.3      12943.129    
    479000   1000.7479     -3711542.4      0             -3645120.3      23108.008    
    480000   1001.2343     -3711486        0             -3645031.7      25104.121    
    481000   999.15084     -3711267.1      0             -3644951.1      15748.592    
    482000   1000.4402     -3710296.7      0             -3643895.1      11667.51     
    483000   1001.01       -3711281.9      0             -3644842.5      18192.462    
    484000   999.32934     -3711405        0             -3645077.2      25306.512    
    485000   1002.7567     -3711677.8      0             -3645122.5      21207.53     
    486000   1001.7187     -3710537.8      0             -3644051.4      12290.693    
    487000   999.96918     -3710900.8      0             -3644530.5      13537.813    
    488000   999.60102     -3711654.3      0             -3645308.4      23675.056    
    489000   999.9452      -3711710.1      0             -3645341.4      24683.908    
    490000   998.67163     -3711132.3      0             -3644848.1      14904.294    
    491000   1001.6445     -3710360        0             -3643878.4      11754.481    
    492000   997.30192     -3711463.1      0             -3645269.8      19298.996    
    493000   999.81275     -3711455.1      0             -3645095.2      25363.345    
    494000   998.35234     -3711478.3      0             -3645215.3      20040.192    
    495000   1001.1636     -3710476.7      0             -3644027.1      12198.542    
    496000   1000.5091     -3710875.5      0             -3644469.3      14347.231    
    497000   999.53605     -3711554.4      0             -3645212.9      24086.159    
    498000   1000.3545     -3711687.5      0             -3645291.6      24203.751    
    499000   998.56184     -3710954.2      0             -3644677.3      14207.791    
    500000   999.99239     -3710556.1      0             -3644184.3      11889.836    
    501000   1000.7843     -3711692        0             -3645267.5      20473.41     
    502000   1000.6412     -3711504.9      0             -3645089.9      25408.629    
    503000   1000.5876     -3711411        0             -3644999.6      18849.962    
    504000   998.47541     -3710408        0             -3644136.8      11954.18     
    505000   1001.1246     -3711122        0             -3644675        15282.278    
    506000   1000.6101     -3711602.1      0             -3645189.2      24375.613    
    507000   999.15428     -3711694.4      0             -3645378.2      23525.571    
    508000   999.81405     -3711064.2      0             -3644704.2      13590.934    
    509000   1001.4178     -3710616.1      0             -3644149.6      12185.206    
    510000   999.09812     -3711476.2      0             -3645163.7      21447.01     
    511000   1000.1946     -3711456.2      0             -3645070.9      25314.329    
    512000   998.51961     -3711251.4      0             -3644977.3      17666.277    
    513000   999.68648     -3710291.2      0             -3643939.7      11915.336    
    514000   1000.541      -3711307.6      0             -3644899.4      16348.474    
    515000   998.67664     -3711604.6      0             -3645320.1      24556.825    
    516000   1000.6872     -3711619.1      0             -3645201.2      22676.183    
    517000   999.79667     -3710736.1      0             -3644377.3      13241.51     
    518000   999.4684      -3710670        0             -3644332.9      12594.688    
    519000   998.75785     -3711706.3      0             -3645416.4      22215.19     
    520000   1001.1181     -3711588.9      0             -3645142.3      25182.096    
    521000   1001.2622     -3711266.4      0             -3644810.3      16645.708    
    522000   999.304       -3710265.8      0             -3643939.6      11815.95     
    523000   1000.617      -3711278.6      0             -3644865.3      17640.95     
    524000   1000.5588     -3711520.9      0             -3645111.4      24828.994    
    525000   999.07336     -3711566.4      0             -3645255.6      21663.525    
    526000   999.78003     -3710575.4      0             -3644217.6      12970        
    527000   1001.6658     -3710715.4      0             -3644232.5      13214.009    
    528000   998.80132     -3711615.1      0             -3645322.3      22767.941    
    529000   1000.2838     -3711621.4      0             -3645230.2      24892.805    
    530000   1001.0863     -3711194.8      0             -3644750.3      15679.563    
    531000   1001.4957     -3710364.6      0             -3643893        11840.012    
    532000   1002.9535     -3711442.2      0             -3644873.8      18777.886    
    533000   1001.8684     -3711614.5      0             -3645118.1      25062.456    
    534000   999.6562      -3711536.5      0             -3645186.9      20552.745    
    535000   998.76407     -3710597        0             -3644306.7      12643.151    
    536000   1000.7605     -3710906.3      0             -3644483.5      13979.618    
    537000   1000.9083     -3711714.3      0             -3645281.6      23270.711    
    538000   998.15737     -3711697.6      0             -3645447.6      24397.508    
    539000   1000.5448     -3711008.4      0             -3644599.8      15042.056    
    540000   999.50441     -3710279.2      0             -3643939.7      11966.74     
    541000   997.32538     -3711553.9      0             -3645359.1      19720.208    
    542000   1000.4045     -3711522.7      0             -3645123.5      25227.147    
    543000   998.94613     -3711583.2      0             -3645280.8      19357.399    
    544000   1001.0685     -3710410.4      0             -3643967.1      12462.167    
    545000   1001.3267     -3711120.2      0             -3644659.7      14921.578    
    546000   1000.3038     -3711489.7      0             -3645097.2      23718.753    
    547000   1000.3921     -3711706.3      0             -3645307.9      23844.435    
    548000   1000.4092     -3711028.2      0             -3644628.7      14525.813    
    549000   998.42181     -3710444.9      0             -3644177.3      11991.953    
    550000   1000.9193     -3711477.1      0             -3645043.7      20647.654    
    551000   1000.8197     -3711538.4      0             -3645111.6      25266.823    
    552000   999.58637     -3711459.6      0             -3645114.7      18296.928    
    553000   1000.2109     -3710533.3      0             -3644146.9      12131.578    
    554000   1000.6594     -3711084.6      0             -3644668.4      15967.856    
    555000   999.74314     -3711547.3      0             -3645192        24079.61     
    556000   998.40915     -3711650.7      0             -3645383.9      22967.406    
    557000   1000.3437     -3710804.6      0             -3644409.4      14075.478    
    558000   1001.2028     -3710533.3      0             -3644081.1      12430.754    
    559000   1000.1729     -3711670.2      0             -3645286.3      21321.429    
    560000   1000.2032     -3711610.6      0             -3645224.8      25163.48     
    561000   1001.0866     -3711516.9      0             -3645072.5      17200.795    
    562000   999.30151     -3710474        0             -3644148        11970.252    
    563000   1000.229      -3711423.3      0             -3645035.8      16952.826    
    564000   1000.7029     -3711496.7      0             -3645077.7      24424.97     
    565000   999.8493      -3711519.6      0             -3645157.3      22036.323    
    566000   999.5003      -3710911.2      0             -3644572        13543.873    
    567000   1002.0155     -3710582.2      0             -3644076.1      13004.082    
    568000   998.8731      -3711553.1      0             -3645255.5      21951.033    
    569000   1000.9397     -3711393.7      0             -3644959        25026.976    
    570000   1000.1154     -3711289.3      0             -3644909.3      16495.269    
    571000   998.59745     -3710341.6      0             -3644062.3      11918.073    
    572000   1000.6373     -3711332.5      0             -3644917.8      18139.185    
    573000   1000.4648     -3711554.6      0             -3645151.4      24765.759    
    574000   998.91344     -3711551.7      0             -3645251.5      20977.916    
    575000   999.6483      -3710692.1      0             -3644343.1      13188.596    
    576000   1001.7966     -3710797.2      0             -3644305.6      13805.92     
    577000   999.31675     -3711658.1      0             -3645331.1      22510.4      
    578000   1000.848      -3711625.1      0             -3645196.4      24619.444    
    579000   997.32291     -3711253.9      0             -3645059.2      15800.25     
    580000   998.99686     -3710550.4      0             -3644244.6      11885.596    
    581000   999.26111     -3711520.6      0             -3645197.3      19100.098    
    582000   1000.885      -3711437.3      0             -3645006.2      25019.481    
    583000   1000.3116     -3711532        0             -3645138.9      19906.427    
    584000   1000.5474     -3710638.6      0             -3644229.9      12807.214    
    585000   1000.2508     -3710967        0             -3644578        14688.676    
    586000   999.19594     -3711481.6      0             -3645162.6      23080.542    
    587000   999.06078     -3711553.8      0             -3645243.7      24021.829    
    588000   1001.8417     -3711104.5      0             -3644609.9      15229.072    
    589000   1000.9292     -3710543.8      0             -3644109.7      12024.809    
    590000   998.65295     -3711483        0             -3645200.1      19916.396    
    591000   999.50707     -3711697.7      0             -3645358        25055.465    
    592000   1000.2849     -3711401.8      0             -3645010.5      18828.871    
    593000   1002.1153     -3710457.3      0             -3643944.5      12499.011    
    594000   998.61907     -3711121.3      0             -3644840.6      15582.17     
    595000   999.96103     -3711451.9      0             -3645082.2      23524.681    
    596000   999.57067     -3711541.9      0             -3645198        23152.717    
    597000   1001.4607     -3710931.6      0             -3644462.3      14679.475    
    598000   1000.0596     -3710646.3      0             -3644270        12385.895    
    599000   1000.5548     -3711320.4      0             -3644911.2      20652.921    
    600000   999.36248     -3711608        0             -3645278        25131.234    
    601000   1000.038      -3711287.3      0             -3644912.4      18007.412    
    602000   1000.812      -3710437.5      0             -3644011.2      12226.467    
    603000   1000.7984     -3711132.9      0             -3644707.6      16661.28     
    604000   998.82155     -3711516.6      0             -3645222.4      24000.289    
    605000   998.48408     -3711455.2      0             -3645183.4      22340.657    
    606000   1000.7561     -3710905        0             -3644482.5      14188.159    
    607000   997.86932     -3710517.7      0             -3644286.8      13019.316    
    608000   1000.466      -3711595.6      0             -3645192.3      21246.611    
    609000   999.03644     -3711568.1      0             -3645259.6      25011.192    
    610000   998.28717     -3711265.3      0             -3645006.6      17210.604    
    611000   998.78776     -3710455.7      0             -3644163.8      11986.508    
    612000   1002.5186     -3711313.6      0             -3644774.1      17577.13     
    613000   1001.165      -3711640.8      0             -3645191.1      24339.039    
    614000   1001.4513     -3711462.4      0             -3644993.7      21360.725    
    615000   999.67063     -3710701.7      0             -3644351.2      13715.603    
    616000   1001.0496     -3710770.8      0             -3644328.8      13720.48     
    617000   1000.4921     -3711620.5      0             -3645215.5      21815.558    
    618000   1000.3208     -3711506.6      0             -3645112.9      24551.622    
    619000   1000.4336     -3711362.7      0             -3644961.5      16536.831    
    620000   1000.0961     -3710463.3      0             -3644084.5      12046.551    
    621000   998.83849     -3711272.9      0             -3644977.6      18473.252    
    622000   1001.8543     -3711464.1      0             -3644968.7      24722.335    
    623000   999.83753     -3711503.7      0             -3645142.1      20366.832    
    624000   1002.1037     -3710661.3      0             -3644149.3      13211.413    
    625000   1001.0081     -3710952.8      0             -3644513.5      14485.917    
    626000   999.47066     -3711455.4      0             -3645118.2      22443.752    
    627000   998.82093     -3711588.4      0             -3645294.3      23960.669    
    628000   999.77044     -3711127.2      0             -3644770.1      15940.104    
    629000   1000.5163     -3710450.4      0             -3644043.8      12139.279    
    630000   999.97654     -3711343.8      0             -3644973        19187.898    
    631000   1001.3827     -3711584.6      0             -3645120.5      24912.29     
    632000   999.51864     -3711311.7      0             -3644971.3      19464.403    
    633000   1000.739      -3710620        0             -3644198.6      12818.31     
    634000   1000.5165     -3711183.9      0             -3644777.3      15291.303    
    635000   999.30265     -3711551.9      0             -3645225.8      22910.381    
    636000   999.72459     -3711663.9      0             -3645309.8      23298.708    
    637000   998.35293     -3711047.2      0             -3644784.1      15368.256    
    638000   1000.9558     -3710595.4      0             -3644159.6      12454.284    
    639000   1000.264      -3711449.1      0             -3645059.2      19891.557    
    640000   999.9041      -3711492.3      0             -3645126.3      24990.077    
    641000   1000.123      -3711391.6      0             -3645011.1      18635.967    
    642000   998.82308     -3710412.4      0             -3644118.1      12537.322    
    643000   999.68828     -3711197.7      0             -3644846        16224.661    
    644000   997.51712     -3711587.3      0             -3645379.7      23499.888    
    645000   1000.6399     -3711513.1      0             -3645098.2      22528.198    
    646000   1000.3533     -3710903.1      0             -3644507.2      14815.364    
    647000   1001.7609     -3710701.8      0             -3644212.6      13033.11     
    648000   999.58231     -3711515.3      0             -3645170.6      20530.813    
    649000   1000.9847     -3711596.1      0             -3645158.3      24794.752    
    650000   998.73655     -3711214.3      0             -3644925.8      17956.274    
    651000   1001.9632     -3710672        0             -3644169.3      12265.771    
    652000   999.04854     -3711269.8      0             -3644960.6      17098.028    
    653000   1001.0591     -3711553.9      0             -3645111.2      24024.96     
    654000   1001.5759     -3711411.4      0             -3644934.4      21691.61     
    655000   999.19719     -3710833.8      0             -3644514.7      14267.088    
    656000   1000.5485     -3710667.9      0             -3644259.1      13646.771    
    657000   999.46031     -3711599.6      0             -3645263        21139.39     
    658000   999.53316     -3711641.1      0             -3645299.7      24432.099    
    659000   1000.0878     -3711241.7      0             -3644863.5      17232.723    
    660000   1000.9092     -3710463.1      0             -3644030.4      12220.545    
    661000   1000.867      -3711312.5      0             -3644882.6      17880.522    
    662000   1002.3921     -3711590.6      0             -3645059.5      24365.059    
    663000   1001.8084     -3711465.4      0             -3644973        20735.065    
    664000   1001.1775     -3710742.5      0             -3644292        13726.866    
    665000   999.49369     -3710864        0             -3644525.2      14300.331    
    666000   1000.6824     -3711542.1      0             -3645124.5      21797.554    
    667000   1000.9343     -3711556.3      0             -3645121.9      23929.956    
    668000   998.47483     -3711108.4      0             -3644837.3      16643.018    
    669000   998.33649     -3710592.3      0             -3644330.4      12279.075    
    670000   1000.2619     -3711395.6      0             -3645005.8      18544.963    
    671000   999.60974     -3711483.2      0             -3645136.7      24613.837    
    672000   1000.4511     -3711518.4      0             -3645116.1      19896.127    
    673000   998.62047     -3710710.1      0             -3644429.3      13141.24     
    674000   1000.1044     -3711081        0             -3644701.7      15071.065    
    675000   1000.7297     -3711479.2      0             -3645058.4      22436.765    
    676000   1001.4753     -3711672.8      0             -3645202.5      23297.223    
    677000   999.97755     -3711126        0             -3644755.1      15942.456    
    678000   998.42199     -3710568.9      0             -3644301.3      12588.955    
    679000   1002.1005     -3711389.7      0             -3644877.9      19239.827    
    680000   999.68106     -3711406.6      0             -3645055.4      24816.453    
    681000   1000.3778     -3711463.4      0             -3645065.9      19173.229    
    682000   999.39908     -3710594.7      0             -3644262.3      12858.802    
    683000   1000.7301     -3711239.4      0             -3644818.6      15939.672    
    684000   998.49011     -3711486.3      0             -3645214.1      23037.963    
    685000   1001.3548     -3711459.6      0             -3644997.3      22654.096    
    686000   1000.1208     -3710966.8      0             -3644586.4      15326.101    
    687000   1000.0245     -3710687.7      0             -3644313.7      13021.933    
    688000   1001.1401     -3711589.5      0             -3645141.5      19890.613    
    689000   1000.4894     -3711607.1      0             -3645202.2      24647.297    
    690000   998.90795     -3711274.3      0             -3644974.4      18590.084    
    691000   999.04943     -3710393.6      0             -3644084.3      12501.019    
    692000   1001.269      -3711133.6      0             -3644677        16715.732    
    693000   998.92535     -3711458.2      0             -3645157.1      23676.687    
    694000   1000.8753     -3711477        0             -3645046.5      21837.175    
    695000   1000.9854     -3710752.5      0             -3644314.8      14721.129    
    696000   1001.1442     -3710771.1      0             -3644322.8      13565.344    
    697000   999.54249     -3711467.2      0             -3645125.2      20636.822    
    698000   999.10194     -3711524.6      0             -3645211.8      24314.506    
    699000   1000.4095     -3711297.1      0             -3644897.5      17822.131    
    700000   999.39397     -3710430.4      0             -3644098.3      12461.834    
    701000   998.83919     -3711411.7      0             -3645116.4      17299.893    
    702000   1002.7902     -3711509        0             -3644951.4      24112.587    
    703000   998.63986     -3711452.3      0             -3645170.2      21049.087    
    704000   999.59121     -3710770.3      0             -3644425.1      14089.988    
    705000   1000.6164     -3710712.3      0             -3644299        14289.946    
    706000   1001.5953     -3711433.6      0             -3644955.4      21325.524    
    707000   1001.486      -3711632.2      0             -3645161.2      23937.707    
    708000   1000.8474     -3711307.9      0             -3644879.3      17175.697    
    709000   998.01304     -3710520.2      0             -3644279.7      12519.208    
    710000   999.60273     -3711193.4      0             -3644847.4      18101.84     
    711000   999.17285     -3711603.6      0             -3645286.1      24344.921    
    712000   998.4583      -3711463        0             -3645193        20375.221    
    713000   1000.2725     -3710691.1      0             -3644300.7      13484.552    
    714000   1000.3696     -3710922        0             -3644525.1      14954.354    
    715000   999.492       -3711585.5      0             -3645246.8      21950.45     
    716000   999.4631      -3711517        0             -3645180.2      23339.381    
    717000   999.27795     -3711239        0             -3644914.6      16440.036    
    718000   1000.6104     -3710416.8      0             -3644003.9      12807.765    
    719000   999.18128     -3711379.2      0             -3645061.2      18719.596    
    720000   1001.127      -3711498.8      0             -3645051.6      24547.221    
    721000   997.78311     -3711518.2      0             -3645293        19658.555    
    722000   998.63766     -3710531.6      0             -3644249.6      13145.484    
    723000   1000.7231     -3711038.7      0             -3644618.3      15631.193    
    724000   1002.142      -3711428.1      0             -3644913.5      22734.939    
    725000   999.02175     -3711413.2      0             -3645105.8      22712.9      
    726000   1001.282      -3710834.2      0             -3644376.7      15865.458    
    727000   1000.6023     -3710678.2      0             -3644265.9      13185.871    
    728000   1000.34       -3711416.8      0             -3645021.8      19461.101    
    729000   999.85808     -3711533.1      0             -3645170.2      24416.481    
    730000   1000.5432     -3711372.8      0             -3644964.4      18985.455    
    731000   999.73706     -3710635.1      0             -3644280.2      12792.64     
    732000   1000.739      -3711072.6      0             -3644651.1      16311.477    
    733000   999.71229     -3711505.9      0             -3645152.7      23298.428    
    734000   1001.3959     -3711508.1      0             -3645043.1      22064.004    
    735000   999.09494     -3710854.3      0             -3644542        15114.623    
    736000   1000.8131     -3710667        0             -3644240.6      13647.259    
    737000   999.10803     -3711500.7      0             -3645187.6      20093.98     
    738000   999.09498     -3711546.1      0             -3645233.8      24206.695    
    739000   1000.3884     -3711361.3      0             -3644963.2      18317.643    
    740000   1000.4757     -3710550.1      0             -3644146.2      12722.335    
    741000   1000.299      -3711109.6      0             -3644717.4      16968.557    
    742000   1001.2952     -3711450.6      0             -3644992.3      23768.874    
    743000   999.92434     -3711445.9      0             -3645078.5      21389.65     
    744000   999.69502     -3710763.9      0             -3644411.8      14423.929    
    745000   1000.6291     -3710835.2      0             -3644421        14189.443    
    746000   1000.3225     -3711549.1      0             -3645155.3      20790.095    
    747000   998.82164     -3711571        0             -3645276.8      23731.87     
    748000   997.85707     -3711281.4      0             -3645051.2      17614.041    
    749000   999.87615     -3710508.3      0             -3644144.1      12773.127    
    750000   1000.07       -3711115.9      0             -3644738.9      17741.409    
    751000   1000.2764     -3711520.3      0             -3645129.6      24085.617    
    752000   999.17374     -3711458.6      0             -3645141.1      20796.232    
    753000   1001.0354     -3710617.3      0             -3644176.2      13934.506    
    754000   1001.6162     -3710860        0             -3644380.4      14835.548    
    755000   998.90324     -3711521.6      0             -3645222        21560.336    
    756000   1000.2586     -3711384.1      0             -3644994.6      23336.075    
    757000   1000.0888     -3711244.8      0             -3644866.5      16960.994    
    758000   999.22817     -3710541.7      0             -3644220.5      12965.119    
    759000   1001.1902     -3711388.4      0             -3644937        18214.582    
    760000   999.17406     -3711485.9      0             -3645168.3      24166.284    
    761000   1000.1238     -3711471        0             -3645090.4      20076.565    
    762000   1003.8768     -3710659.7      0             -3644030        13492.062    
    763000   998.8023      -3710867.5      0             -3644574.6      15383.407    
    764000   1000.5023     -3711515.2      0             -3645109.4      22277.187    
    765000   998.73554     -3711544.9      0             -3645256.4      22708.202    
    766000   1001.371      -3711042.6      0             -3644579.3      16287.888    
    767000   1000.2768     -3710721.7      0             -3644330.9      13251.661    
    768000   1000.3793     -3711415.1      0             -3645017.6      18935.746    
    769000   1001.8033     -3711536        0             -3645043.9      24135.847    
    770000   998.55891     -3711344.7      0             -3645068        19359.137    
    771000   1002.8099     -3710631.9      0             -3644073        13148.461    
    772000   999.97678     -3711074.1      0             -3644703.3      15923.584    
    773000   999.94995     -3711521.4      0             -3645152.4      22903.293    
    774000   1000.2913     -3711477.4      0             -3645085.7      22151.409    
    775000   999.82102     -3711004.7      0             -3644644.2      15522.244    
    776000   999.93369     -3710773        0             -3644405        13672.041    
    777000   999.92831     -3711468        0             -3645100.4      19721.977    
    778000   1002.0741     -3711531.9      0             -3645021.9      23974.912    
    779000   1001.0238     -3711333.3      0             -3644893        18815.808    
    780000   999.51909     -3710591.9      0             -3644251.4      13056.981    
    781000   1001.2172     -3711117.9      0             -3644664.7      16638.621    
    782000   999.20358     -3711500.9      0             -3645181.4      23376.599    
    783000   1000.258      -3711514.4      0             -3645124.9      21639.184    
    784000   1000.7024     -3710925.7      0             -3644506.7      14798.198    
    785000   999.89884     -3710807.1      0             -3644441.4      14179.463    
    786000   1000.5257     -3711440.3      0             -3645033        20424.425    
    787000   1000.7981     -3711555        0             -3645129.7      23619.661    
    788000   1000.0132     -3711301.6      0             -3644928.4      18035.324    
    789000   1001.8585     -3710749.9      0             -3644254.2      13031.041    
    790000   1000.1475     -3711275.9      0             -3644893.8      17218.64     
    791000   999.29301     -3711437.9      0             -3645112.4      23718.051    
    792000   1000.4464     -3711468.2      0             -3645066.2      21066.987    
    793000   998.23266     -3710919.8      0             -3644664.8      14264.929    
[...]
   2885000   997.81734     -3711157.2      0             -3644929.7      18073.842    
   2886000   999.01047     -3711316.4      0             -3645009.7      18869.773    
   2887000   999.83495     -3711142.3      0             -3644780.9      18986.746    
   2888000   1001.5485     -3711160.1      0             -3644685        18187.866    
   2889000   999.20372     -3711095        0             -3644775.4      17927.401    
   2890000   999.58031     -3711405.2      0             -3645060.7      18512.268    
   2891000   999.9674      -3711290.3      0             -3644920.1      19009.813    
   2892000   996.92456     -3711153        0             -3644984.7      18557.636    
   2893000   999.15129     -3711036.6      0             -3644720.6      17933.974    
   2894000   1000.7037     -3711283        0             -3644863.9      18087.027    
   2895000   999.69978     -3711306.3      0             -3644953.9      18914.445    
   2896000   1001.0996     -3711369.5      0             -3644924.1      18947.473    
   2897000   1000.2451     -3711204.4      0             -3644815.8      18171.782    
   2898000   1002.1445     -3711085.8      0             -3644571        18063.363    
   2899000   1001.6704     -3711245.6      0             -3644762.4      18665.843    
   2900000   1000.8615     -3711288.9      0             -3644859.4      19034.107    
   2901000   1000.5482     -3711307.7      0             -3644899        18503.742    
   2902000   1000.451      -3711170.6      0             -3644768.3      17965.748    
   2903000   1001.6269     -3711135.3      0             -3644655        18249.728    
   2904000   1000.8552     -3711170.8      0             -3644741.7      19076.264    
   2905000   998.61629     -3711205.2      0             -3644924.6      18884.329    
   2906000   1001.2261     -3711150.2      0             -3644696.4      18144.696    
   2907000   1000.2038     -3711088.9      0             -3644703        17993.331    
   2908000   1001.5939     -3711281.7      0             -3644803.5      18767.439    
   2909000   1000.4514     -3711120.1      0             -3644717.7      19059.225    
   2910000   999.06614     -3711147.2      0             -3644836.8      18391.776    
   2911000   999.06235     -3711084.5      0             -3644774.4      18098.115    
   2912000   999.98699     -3711171.4      0             -3644799.8      18365.63     
   2913000   1000.2677     -3711331        0             -3644940.8      19040.944    
   2914000   1000.2164     -3711207.2      0             -3644820.5      18917.015    
   2915000   1000.28       -3711081.5      0             -3644690.6      18045.115    
   2916000   998.71722     -3711188.8      0             -3644901.6      17952.163    
   2917000   997.92828     -3711221.1      0             -3644986.3      18745.251    
   2918000   1000.0773     -3711258.6      0             -3644881.1      18972.279    
   2919000   999.56669     -3711117.3      0             -3644773.7      18418.133    
   2920000   997.24153     -3711342.5      0             -3645153.2      17863.417    
   2921000   998.87086     -3711268.3      0             -3644970.9      18393.115    
   2922000   999.95358     -3711192.3      0             -3644823        18921.18     
   2923000   999.71598     -3711399.5      0             -3645046        18668.989    
   2924000   997.93944     -3711203.3      0             -3644967.7      17940.207    
   2925000   999.75235     -3710998.5      0             -3644642.6      18057.975    
   2926000   1002.4417     -3711213.3      0             -3644678.8      18921.638    
   2927000   1001.3576     -3711234.5      0             -3644772        19029.14     
   2928000   999.89009     -3711207.3      0             -3644842.3      18277.31     
   2929000   1000.0333     -3711057.3      0             -3644682.7      17941.621    
   2930000   999.59444     -3711080.2      0             -3644734.7      18525.301    
   2931000   1000.3028     -3711200.6      0             -3644808.1      19008.773    
   2932000   999.53394     -3711183.1      0             -3644841.6      18642.505    
   2933000   1000.9336     -3710966.3      0             -3644531.9      18006.912    
   2934000   998.52798     -3711363        0             -3645088.4      18001.377    
   2935000   1001.4016     -3711271.2      0             -3644805.8      18978.16     
   2936000   1000.2095     -3711122.7      0             -3644736.4      19045.456    
   2937000   999.69864     -3711260.7      0             -3644908.3      18189.798    
   2938000   999.5625      -3711219        0             -3644875.7      17929.861    
   2939000   1000.7762     -3711292.9      0             -3644869        18530.995    
   2940000   1002.1073     -3711162        0             -3644649.8      19058.72     
   2941000   999.98659     -3711251        0             -3644879.5      18557.065    
   2942000   1001.8894     -3711180.9      0             -3644683.1      18001.515    
   2943000   1000.1534     -3711161.5      0             -3644778.9      18221.407    
   2944000   1001.8979     -3711184.4      0             -3644686.1      19010.329    
   2945000   1001.703      -3711233.3      0             -3644747.9      18936.627    
   2946000   997.99811     -3711171.2      0             -3644931.7      18112.951    
   2947000   999.82948     -3711156.7      0             -3644795.7      17971.179    
   2948000   999.6555      -3711163.7      0             -3644814.2      18661.69     
   2949000   1000.4028     -3711308.6      0             -3644909.5      19022.385    
   2950000   1000.778      -3711246.2      0             -3644822.2      18497.174    
   2951000   1000.6886     -3711224.4      0             -3644806.3      18002.583    
   2952000   999.79126     -3711344.5      0             -3644986        18257.459    
   2953000   1000.5441     -3711234.6      0             -3644826.1      19007.134    
   2954000   999.85865     -3711227.4      0             -3644864.4      18883.43     
   2955000   1000.0149     -3711210.9      0             -3644837.6      18020.964    
   2956000   998.88946     -3711105.4      0             -3644806.7      18001.251    
   2957000   1001.0987     -3711226.5      0             -3644781.2      18784.37     
   2958000   999.74873     -3711209.1      0             -3644853.5      18999.045    
   2959000   1000.3145     -3711155.3      0             -3644762        18433.093    
   2960000   999.98066     -3711141.1      0             -3644770.1      18022.21     
   2961000   997.65322     -3711140.8      0             -3644924.2      18404.405    
   2962000   1000.3758     -3711208.8      0             -3644811.5      18957.494    
   2963000   1002.1254     -3711276.7      0             -3644763.2      18783.578    
   2964000   999.91369     -3711137.1      0             -3644770.4      17971.452    
   2965000   1000.8785     -3711216.3      0             -3644785.6      18027.34     
   2966000   1000.9563     -3711240.2      0             -3644804.3      18903.438    
   2967000   1000.8368     -3711234.8      0             -3644806.8      19105.287    
   2968000   999.831       -3711140        0             -3644778.8      18362.075    
   2969000   999.3133      -3711190.4      0             -3644863.6      17962.631    
   2970000   1001.1165     -3711273.6      0             -3644827.1      18504.348    
   2971000   999.77713     -3711361.8      0             -3645004.2      18956.623    
   2972000   998.8868      -3711241.2      0             -3644942.7      18663.752    
   2973000   999.80048     -3711215.5      0             -3644856.4      17947.454    
   2974000   999.75323     -3711187.3      0             -3644831.3      18106.407    
   2975000   1000.5853     -3711327.5      0             -3644916.3      18874.025    
   2976000   1001.3813     -3711336.9      0             -3644872.8      19008.931    
   2977000   1000.1787     -3711283.6      0             -3644899.4      18210.592    
   2978000   999.2757      -3711004        0             -3644679.7      17938.741    
   2979000   998.23914     -3711130.7      0             -3644875.2      18546.159    
   2980000   1000.1462     -3711280.2      0             -3644898.1      18951.884    
   2981000   998.81137     -3711201.5      0             -3644908.1      18494.862    
   2982000   999.47072     -3711162.5      0             -3644825.2      18041.498    
   2983000   998.61808     -3711070.6      0             -3644790        18229.07     
   2984000   999.17542     -3711320.9      0             -3645003.2      18933.69     
   2985000   998.84071     -3710961.7      0             -3644666.3      19077.256    
   2986000   998.86867     -3711132.8      0             -3644835.5      18160.635    
   2987000   1001.6979     -3711259.3      0             -3644774.3      17850.959    
   2988000   998.62342     -3711241.1      0             -3644960.1      18620.247    
   2989000   1001.7786     -3711223.2      0             -3644732.7      19066.425    
   2990000   997.47561     -3711277.7      0             -3645072.9      18446.974    
   2991000   998.23755     -3711144.6      0             -3644889.2      18017.597    
   2992000   999.56894     -3711197.2      0             -3644853.5      18294.122    
   2993000   999.87451     -3711173        0             -3644808.9      18895.677    
   2994000   999.70822     -3711204.2      0             -3644851.2      18886.075    
   2995000   998.83758     -3711180.3      0             -3644885.1      18073.336    
   2996000   1000.3686     -3711279.3      0             -3644882.5      17882.841    
   2997000   1000.8638     -3711303.9      0             -3644874.2      18774.45     
   2998000   999.88119     -3711236.2      0             -3644871.8      19114.723    
   2999000   999.81357     -3711150.3      0             -3644790.3      18463.168    
   3000000   998.9743      -3711122.5      0             -3644818.2      17960.253    
   3001000   998.59264     -3711019.7      0             -3644740.7      18436.118    
   3002000   1000.8059     -3711046.8      0             -3644620.9      19010.497    
   3003000   998.578       -3711324.5      0             -3645046.5      18683.695    
   3004000   1000.023      -3711175.1      0             -3644801.2      18050.379    
   3005000   999.18222     -3711212.4      0             -3644894.3      17973.405    
   3006000   997.76429     -3711271.5      0             -3645047.5      18794.404    
   3007000   1000.928      -3711374.7      0             -3644940.7      19116.907    
   3008000   1000.5292     -3711250.5      0             -3644843.1      18279.969    
   3009000   999.35964     -3711100.6      0             -3644770.7      17914.902    
   3010000   1001.5466     -3711328.4      0             -3644853.3      18406.155    
   3011000   999.94522     -3711231        0             -3644862.3      18965.12     
   3012000   997.88378     -3711202.5      0             -3644970.6      18616.72     
   3013000   998.59448     -3711302.9      0             -3645023.8      18052.138    
   3014000   1001.1844     -3711161.3      0             -3644710.3      18112.987    
   3015000   999.47423     -3711266.3      0             -3644928.8      18777.902    
   3016000   1000.8786     -3711207.8      0             -3644777.1      19084.868    
   3017000   1002.2975     -3711183        0             -3644658.1      18297.637    
   3018000   1000.0043     -3711197.6      0             -3644825        17830.505    
   3019000   1000.6339     -3711294        0             -3644879.5      18536.689    
   3020000   999.57374     -3711204.1      0             -3644860        19022.547    
   3021000   999.00901     -3711363.4      0             -3645056.8      18626.168    
   3022000   999.59792     -3711100        0             -3644754.4      18109.168    
   3023000   998.46152     -3711185        0             -3644914.8      18172.771    
   3024000   1001.0275     -3711271.1      0             -3644830.5      18857.676    
   3025000   998.25269     -3711191.8      0             -3644935.4      18952.988    
   3026000   999.4962      -3711028.6      0             -3644689.7      18238.372    
   3027000   1000.5397     -3711206.5      0             -3644798.3      17817.501    
   3028000   997.84679     -3711208.8      0             -3644979.4      18559.841    
   3029000   998.98679     -3711336.6      0             -3645031.5      19048.263    
   3030000   1000.3018     -3711242.1      0             -3644849.7      18552.297    
   3031000   1000.2118     -3711166.6      0             -3644780.1      17985.572    
   3032000   1000.1117     -3711274.6      0             -3644894.8      18279.154    
   3033000   1001.2754     -3711318.3      0             -3644861.3      18831.143    
   3034000   1000.6446     -3711178.8      0             -3644763.7      18894.182    
   3035000   1001.4248     -3711115.8      0             -3644648.8      18208.097    
   3036000   1000.9968     -3711145.2      0             -3644706.7      17958.738    
   3037000   1002.5414     -3711351.2      0             -3644810.2      18644.556    
   3038000   1000.917      -3711148.7      0             -3644715.4      19120.854    
   3039000   999.89221     -3711142.5      0             -3644777.3      18406.492    
   3040000   999.60494     -3711088.2      0             -3644742        17972.755    
   3041000   997.69654     -3711200.6      0             -3644981.1      18318.936    
   3042000   1000.1837     -3711380.8      0             -3644996.2      18839.928    
   3043000   999.21249     -3711157.8      0             -3644837.7      18763.692    
   3044000   999.63796     -3711106.9      0             -3644758.6      18173.619    
   3045000   997.82858     -3711165.9      0             -3644937.6      17988.965    
   3046000   1000.0321     -3711185.3      0             -3644810.8      18734.632    
   3047000   1000.2694     -3711330.4      0             -3644940.2      19073.751    
   3048000   998.8038      -3711280.9      0             -3644987.9      18303.505    
   3049000   1000.9682     -3711165        0             -3644728.4      17921.776    
   3050000   999.88577     -3711233        0             -3644868.2      18456.469    
   3051000   1000.2613     -3711243.2      0             -3644853.5      18998.256    
   3052000   1000.3106     -3711250.7      0             -3644857.7      18730.625    
   3053000   1000.4111     -3711054.3      0             -3644654.6      18167.64     
   3054000   1001.2613     -3711258.7      0             -3644802.6      18071.446    
   3055000   1000.0516     -3711385.9      0             -3645010.1      18683.678    
   3056000   1001.0687     -3711207        0             -3644763.7      19042.447    
   3057000   1000.1972     -3711152        0             -3644766.6      18325.832    
   3058000   1001.4265     -3711167.6      0             -3644700.6      17897.71     
   3059000   1000.2741     -3711183.2      0             -3644792.6      18554.581    
   3060000   999.71457     -3711299        0             -3644945.6      19013.098    
   3061000   1001.306      -3711275.6      0             -3644816.6      18596.858    
   3062000   1000.679      -3711207.7      0             -3644790.3      18096.91     
   3063000   998.76095     -3711270.1      0             -3644980        18168.715    
   3064000   1002.8157     -3711161.5      0             -3644602.2      18857.559    
   3065000   999.67839     -3711245.9      0             -3644894.8      18989.169    
   3066000   1000.8478     -3711105.3      0             -3644676.6      18301.473    
   3067000   999.65185     -3711147.7      0             -3644798.4      17969.12     
   3068000   998.02003     -3711168.8      0             -3644927.9      18642.849    
   3069000   1000.2378     -3711294.9      0             -3644906.7      19033.262    
   3070000   1000.4712     -3711254.1      0             -3644850.5      18523.294    
   3071000   998.35109     -3711116        0             -3644853.1      17994.355    
   3072000   999.70646     -3711107.5      0             -3644754.6      18234.312    
   3073000   1001.4326     -3711258.9      0             -3644791.5      18815.014    
   3074000   1000.2533     -3711162.6      0             -3644773.4      18848.256    
   3075000   1000.3547     -3711193.1      0             -3644797.2      18217.625    
   3076000   1000.0747     -3711115.1      0             -3644737.8      17972.152    
   3077000   999.54344     -3711250.1      0             -3644908        18691.108    
   3078000   998.56356     -3711345.6      0             -3645068.6      19056.914    
   3079000   999.78594     -3711274.4      0             -3644916.3      18421.925    
   3080000   999.36475     -3711125.3      0             -3644795.1      17924.315    
   3081000   998.93489     -3711273.3      0             -3644971.6      18333.042    
   3082000   999.55117     -3711309.8      0             -3644967.2      18852.341    
   3083000   1000.5669     -3711098.5      0             -3644688.5      18795.727    
   3084000   999.80646     -3711175        0             -3644815.4      18153.826    
   3085000   1000.4763     -3711150.2      0             -3644746.2      18076.236    
   3086000   999.0627      -3711257.4      0             -3644947.3      18602.54     
   3087000   998.10523     -3711317.9      0             -3645071.3      19011.909    
   3088000   1002.075      -3711201.1      0             -3644691        18400.271    
   3089000   1000.9026     -3711035.5      0             -3644603.2      17961.291    
   3090000   999.94192     -3711189.7      0             -3644821.2      18450.473    
   3091000   1000.3639     -3711308        0             -3644911.5      18980.058    
   3092000   1000.0545     -3711304.6      0             -3644928.6      18760.091    
   3093000   999.33842     -3711224.5      0             -3644896        18174.779    
   3094000   997.69132     -3711253.6      0             -3645034.5      18096.892    
   3095000   1000.22       -3711122.4      0             -3644735.4      18824.627    
   3096000   999.25341     -3711272.3      0             -3644949.5      19004.545    
   3097000   999.72768     -3711198.9      0             -3644844.6      18348.473    
   3098000   1001.616      -3711226.9      0             -3644747.3      17898.617    
   3099000   1000.8013     -3711199.9      0             -3644774.3      18511.993    
   3100000   999.84278     -3711265.8      0             -3644903.9      19033.726    
Loop time of 90501.9 on 2048 procs for 3000000 steps with 513480 atoms

Performance: 2.864 ns/day, 8.380 hours/ns, 33.148 timesteps/s, 17.021 Matom-step/s
99.5% CPU use with 64 MPI tasks x 32 OpenMP threads

MPI task timing breakdown:
Section |  min time  |  avg time  |  max time  |%varavg| %total
---------------------------------------------------------------
Pair    | 3.1107     | 31399      | 78809      |20626.2 | 34.69
Neigh   | 0.046463   | 201.38     | 518.25     |1691.7 |  0.22
Comm    | 1.7028     | 12633      | 70366      |19784.6 | 13.96
Output  | 3.6177     | 9.787      | 16.191     | 120.1 |  0.01
Modify  | 932.36     | 45913      | 90050      |20597.8 | 50.73
Other   |            | 345.4      |            |       |  0.38

Nlocal:        8023.12 ave       20063 max           0 min
Histogram: 32 0 8 0 0 0 0 0 0 24
Nghost:        26784.7 ave       64397 max           0 min
Histogram: 32 0 0 8 0 0 0 0 0 24
Neighs:              0 ave           0 max           0 min
Histogram: 64 0 0 0 0 0 0 0 0 0

Total # of neighbors = 0
Ave neighs/atom = 0
Neighbor list builds = 2074
Dangerous builds = 0
Total wall time: 25:57:45
