LAMMPS (7 Feb 2024 - Development - patch_7Feb2024_update1-147-g4d89741d8c)
OMP_NUM_THREADS environment is not set. Defaulting to 1 thread. (src/comm.cpp:98)
  using 1 OpenMP thread(s) per MPI task
# Initialization
units       metal
dimension   3
boundary    p p p     # Periodic in x, y and free in z direction
atom_style  atomic

# User variables
variable annealtemp equal 0
variable strikeangle equal 0
variable strikespeed equal 5256.86052036

# Computed variables
variable posx equal 42.885349000000005+(5*cos((90-${strikeangle}))*PI/180)
variable posx equal 42.885349000000005+(5*cos((90-0))*PI/180)
variable posz equal 710+(5*sin((90-${strikeangle})*PI/180))
variable posz equal 710+(5*sin((90-0)*PI/180))
variable posy equal 34.3068485
variable velx equal ${strikespeed}*cos((90-${strikeangle})*PI/180)
variable velx equal 5256.86052036*cos((90-${strikeangle})*PI/180)
variable velx equal 5256.86052036*cos((90-0)*PI/180)
variable velz equal ${strikespeed}*sin((90-${strikeangle})*PI/180)
variable velz equal 5256.86052036*sin((90-${strikeangle})*PI/180)
variable velz equal 5256.86052036*sin((90-0)*PI/180)

# Create Atom Structure (assuming diamond cubic lattice)
lattice     diamond 3.567 orient  x 1 1 0 orient y 0 0 -1 orient z -1 1 0 # Diamond lattice constant for carbon in Angstroms with 1 0 0 x direction orientation.
Lattice spacing in x,y,z = 5.0444998 3.567 5.0444998
region      box block 0 20 0 20 0 200 units lattice
create_box  2 box
Created orthogonal box = (0 0 0) to (100.89 71.34 1008.9)
  1 by 1 by 1 MPI processor grid
region      slab block 0 20 0 20 60 140 units lattice
create_atoms 1 region slab
Created 513480 atoms
  using lattice units in orthogonal box = (0 0 0) to (100.89 71.34 1008.9)
  create_atoms CPU = 0.054 seconds

# Add tin atom
create_atoms 2 single ${posx} ${posy} ${posz} units box  # Position tin atom above the slab
create_atoms 2 single 42.8462472005361 ${posy} ${posz} units box  
create_atoms 2 single 42.8462472005361 34.3068485 ${posz} units box  
create_atoms 2 single 42.8462472005361 34.3068485 715 units box  
Created 1 atoms
  using box units in orthogonal box = (0 0 0) to (100.89 71.34 1008.9)
  create_atoms CPU = 0.001 seconds

# Define Potential
# pair_style      hybrid tersoff lj/cut 2.5  # tersoff
pair_style      tersoff  # tersoff

pair_coeff      * * tersoff /home/stovey/work/projects/quantum-lab/ballistic-diamond/lammps/potentials/SiC.tersoff C Sn# You may need to adjust the file name depending on your LAMMPS distribution
ERROR: Number of element to type mappings does not match number of atom types (src/pair.cpp:824)
Last command: pair_coeff      * * tersoff /home/stovey/work/projects/quantum-lab/ballistic-diamond/lammps/potentials/SiC.tersoff C Sn# You may need to adjust the file name depending on your LAMMPS distribution
