LAMMPS (7 Feb 2024 - Development - patch_7Feb2024_update1-147-g4d89741d8c)
